ITEM: TIMESTEP
0
ITEM: NUMBER OF ATOMS
2
ITEM: BOX BOUNDS pp pp pp
0.000000 20.000000
0.000000 20.000000
0.000000 20.000000
ITEM: ATOMS id type x y z pe fx fy fz
1 1         0.00000000000000000000         0.00000000000000000000         0.00000000000000000000         0.00000000000000000000         0.00000000000000000000         0.00000000000000000000         0.00000000000000000000
2 1         2.00000000000000000000         0.00000000000000000000         0.00000000000000000000         0.00000000000000000000         0.00000000000000000000         0.00000000000000000000         0.00000000000000000000
