ITEM: TIMESTEP
1
ITEM: NUMBER OF ATOMS
250
ITEM: BOX BOUNDS pp pp pp
0.000000 5.000000
0.000000 5.000000
0.000000 5.000000
ITEM: ATOMS id type x y z
1 1 0.000000 0.000000 0.000000
2 1 0.500000 0.500000 0.500000
3 1 0.000000 0.000000 1.000000
4 1 0.500000 0.500000 1.500000
5 1 0.000000 0.000000 2.000000
6 1 0.500000 0.500000 2.500000
7 1 0.000000 0.000000 3.000000
8 1 0.500000 0.500000 3.500000
9 1 0.000000 0.000000 4.000000
10 1 0.500000 0.500000 4.500000
11 1 0.000000 1.000000 0.000000
12 1 0.500000 1.500000 0.500000
13 1 0.000000 1.000000 1.000000
14 1 0.500000 1.500000 1.500000
15 1 0.000000 1.000000 2.000000
16 1 0.500000 1.500000 2.500000
17 1 0.000000 1.000000 3.000000
18 1 0.500000 1.500000 3.500000
19 1 0.000000 1.000000 4.000000
20 1 0.500000 1.500000 4.500000
21 1 0.000000 2.000000 0.000000
22 1 0.500000 2.500000 0.500000
23 1 0.000000 2.000000 1.000000
24 1 0.500000 2.500000 1.500000
25 1 0.000000 2.000000 2.000000
26 1 0.500000 2.500000 2.500000
27 1 0.000000 2.000000 3.000000
28 1 0.500000 2.500000 3.500000
29 1 0.000000 2.000000 4.000000
30 1 0.500000 2.500000 4.500000
31 1 0.000000 3.000000 0.000000
32 1 0.500000 3.500000 0.500000
33 1 0.000000 3.000000 1.000000
34 1 0.500000 3.500000 1.500000
35 1 0.000000 3.000000 2.000000
36 1 0.500000 3.500000 2.500000
37 1 0.000000 3.000000 3.000000
38 1 0.500000 3.500000 3.500000
39 1 0.000000 3.000000 4.000000
40 1 0.500000 3.500000 4.500000
41 1 0.000000 4.000000 0.000000
42 1 0.500000 4.500000 0.500000
43 1 0.000000 4.000000 1.000000
44 1 0.500000 4.500000 1.500000
45 1 0.000000 4.000000 2.000000
46 1 0.500000 4.500000 2.500000
47 1 0.000000 4.000000 3.000000
48 1 0.500000 4.500000 3.500000
49 1 0.000000 4.000000 4.000000
50 1 0.500000 4.500000 4.500000
51 1 1.000000 0.000000 0.000000
52 1 1.500000 0.500000 0.500000
53 1 1.000000 0.000000 1.000000
54 1 1.500000 0.500000 1.500000
55 1 1.000000 0.000000 2.000000
56 1 1.500000 0.500000 2.500000
57 1 1.000000 0.000000 3.000000
58 1 1.500000 0.500000 3.500000
59 1 1.000000 0.000000 4.000000
60 1 1.500000 0.500000 4.500000
61 1 1.000000 1.000000 0.000000
62 1 1.500000 1.500000 0.500000
63 1 1.000000 1.000000 1.000000
64 1 1.500000 1.500000 1.500000
65 1 1.000000 1.000000 2.000000
66 1 1.500000 1.500000 2.500000
67 1 1.000000 1.000000 3.000000
68 1 1.500000 1.500000 3.500000
69 1 1.000000 1.000000 4.000000
70 1 1.500000 1.500000 4.500000
71 1 1.000000 2.000000 0.000000
72 1 1.500000 2.500000 0.500000
73 1 1.000000 2.000000 1.000000
74 1 1.500000 2.500000 1.500000
75 1 1.000000 2.000000 2.000000
76 1 1.500000 2.500000 2.500000
77 1 1.000000 2.000000 3.000000
78 1 1.500000 2.500000 3.500000
79 1 1.000000 2.000000 4.000000
80 1 1.500000 2.500000 4.500000
81 1 1.000000 3.000000 0.000000
82 1 1.500000 3.500000 0.500000
83 1 1.000000 3.000000 1.000000
84 1 1.500000 3.500000 1.500000
85 1 1.000000 3.000000 2.000000
86 1 1.500000 3.500000 2.500000
87 1 1.000000 3.000000 3.000000
88 1 1.500000 3.500000 3.500000
89 1 1.000000 3.000000 4.000000
90 1 1.500000 3.500000 4.500000
91 1 1.000000 4.000000 0.000000
92 1 1.500000 4.500000 0.500000
93 1 1.000000 4.000000 1.000000
94 1 1.500000 4.500000 1.500000
95 1 1.000000 4.000000 2.000000
96 1 1.500000 4.500000 2.500000
97 1 1.000000 4.000000 3.000000
98 1 1.500000 4.500000 3.500000
99 1 1.000000 4.000000 4.000000
100 1 1.500000 4.500000 4.500000
101 1 2.000000 0.000000 0.000000
102 1 2.500000 0.500000 0.500000
103 1 2.000000 0.000000 1.000000
104 1 2.500000 0.500000 1.500000
105 1 2.000000 0.000000 2.000000
106 1 2.500000 0.500000 2.500000
107 1 2.000000 0.000000 3.000000
108 1 2.500000 0.500000 3.500000
109 1 2.000000 0.000000 4.000000
110 1 2.500000 0.500000 4.500000
111 1 2.000000 1.000000 0.000000
112 1 2.500000 1.500000 0.500000
113 1 2.000000 1.000000 1.000000
114 1 2.500000 1.500000 1.500000
115 1 2.000000 1.000000 2.000000
116 1 2.500000 1.500000 2.500000
117 1 2.000000 1.000000 3.000000
118 1 2.500000 1.500000 3.500000
119 1 2.000000 1.000000 4.000000
120 1 2.500000 1.500000 4.500000
121 1 2.000000 2.000000 0.000000
122 1 2.500000 2.500000 0.500000
123 1 2.000000 2.000000 1.000000
124 1 2.500000 2.500000 1.500000
125 1 2.000000 2.000000 2.000000
126 1 2.500000 2.500000 2.500000
127 1 2.000000 2.000000 3.000000
128 1 2.500000 2.500000 3.500000
129 1 2.000000 2.000000 4.000000
130 1 2.500000 2.500000 4.500000
131 1 2.000000 3.000000 0.000000
132 1 2.500000 3.500000 0.500000
133 1 2.000000 3.000000 1.000000
134 1 2.500000 3.500000 1.500000
135 1 2.000000 3.000000 2.000000
136 1 2.500000 3.500000 2.500000
137 1 2.000000 3.000000 3.000000
138 1 2.500000 3.500000 3.500000
139 1 2.000000 3.000000 4.000000
140 1 2.500000 3.500000 4.500000
141 1 2.000000 4.000000 0.000000
142 1 2.500000 4.500000 0.500000
143 1 2.000000 4.000000 1.000000
144 1 2.500000 4.500000 1.500000
145 1 2.000000 4.000000 2.000000
146 1 2.500000 4.500000 2.500000
147 1 2.000000 4.000000 3.000000
148 1 2.500000 4.500000 3.500000
149 1 2.000000 4.000000 4.000000
150 1 2.500000 4.500000 4.500000
151 1 3.000000 0.000000 0.000000
152 1 3.500000 0.500000 0.500000
153 1 3.000000 0.000000 1.000000
154 1 3.500000 0.500000 1.500000
155 1 3.000000 0.000000 2.000000
156 1 3.500000 0.500000 2.500000
157 1 3.000000 0.000000 3.000000
158 1 3.500000 0.500000 3.500000
159 1 3.000000 0.000000 4.000000
160 1 3.500000 0.500000 4.500000
161 1 3.000000 1.000000 0.000000
162 1 3.500000 1.500000 0.500000
163 1 3.000000 1.000000 1.000000
164 1 3.500000 1.500000 1.500000
165 1 3.000000 1.000000 2.000000
166 1 3.500000 1.500000 2.500000
167 1 3.000000 1.000000 3.000000
168 1 3.500000 1.500000 3.500000
169 1 3.000000 1.000000 4.000000
170 1 3.500000 1.500000 4.500000
171 1 3.000000 2.000000 0.000000
172 1 3.500000 2.500000 0.500000
173 1 3.000000 2.000000 1.000000
174 1 3.500000 2.500000 1.500000
175 1 3.000000 2.000000 2.000000
176 1 3.500000 2.500000 2.500000
177 1 3.000000 2.000000 3.000000
178 1 3.500000 2.500000 3.500000
179 1 3.000000 2.000000 4.000000
180 1 3.500000 2.500000 4.500000
181 1 3.000000 3.000000 0.000000
182 1 3.500000 3.500000 0.500000
183 1 3.000000 3.000000 1.000000
184 1 3.500000 3.500000 1.500000
185 1 3.000000 3.000000 2.000000
186 1 3.500000 3.500000 2.500000
187 1 3.000000 3.000000 3.000000
188 1 3.500000 3.500000 3.500000
189 1 3.000000 3.000000 4.000000
190 1 3.500000 3.500000 4.500000
191 1 3.000000 4.000000 0.000000
192 1 3.500000 4.500000 0.500000
193 1 3.000000 4.000000 1.000000
194 1 3.500000 4.500000 1.500000
195 1 3.000000 4.000000 2.000000
196 1 3.500000 4.500000 2.500000
197 1 3.000000 4.000000 3.000000
198 1 3.500000 4.500000 3.500000
199 1 3.000000 4.000000 4.000000
200 1 3.500000 4.500000 4.500000
201 1 4.000000 0.000000 0.000000
202 1 4.500000 0.500000 0.500000
203 1 4.000000 0.000000 1.000000
204 1 4.500000 0.500000 1.500000
205 1 4.000000 0.000000 2.000000
206 1 4.500000 0.500000 2.500000
207 1 4.000000 0.000000 3.000000
208 1 4.500000 0.500000 3.500000
209 1 4.000000 0.000000 4.000000
210 1 4.500000 0.500000 4.500000
211 1 4.000000 1.000000 0.000000
212 1 4.500000 1.500000 0.500000
213 1 4.000000 1.000000 1.000000
214 1 4.500000 1.500000 1.500000
215 1 4.000000 1.000000 2.000000
216 1 4.500000 1.500000 2.500000
217 1 4.000000 1.000000 3.000000
218 1 4.500000 1.500000 3.500000
219 1 4.000000 1.000000 4.000000
220 1 4.500000 1.500000 4.500000
221 1 4.000000 2.000000 0.000000
222 1 4.500000 2.500000 0.500000
223 1 4.000000 2.000000 1.000000
224 1 4.500000 2.500000 1.500000
225 1 4.000000 2.000000 2.000000
226 1 4.500000 2.500000 2.500000
227 1 4.000000 2.000000 3.000000
228 1 4.500000 2.500000 3.500000
229 1 4.000000 2.000000 4.000000
230 1 4.500000 2.500000 4.500000
231 1 4.000000 3.000000 0.000000
232 1 4.500000 3.500000 0.500000
233 1 4.000000 3.000000 1.000000
234 1 4.500000 3.500000 1.500000
235 1 4.000000 3.000000 2.000000
236 1 4.500000 3.500000 2.500000
237 1 4.000000 3.000000 3.000000
238 1 4.500000 3.500000 3.500000
239 1 4.000000 3.000000 4.000000
240 1 4.500000 3.500000 4.500000
241 1 4.000000 4.000000 0.000000
242 1 4.500000 4.500000 0.500000
243 1 4.000000 4.000000 1.000000
244 1 4.500000 4.500000 1.500000
245 1 4.000000 4.000000 2.000000
246 1 4.500000 4.500000 2.500000
247 1 4.000000 4.000000 3.000000
248 1 4.500000 4.500000 3.500000
249 1 4.000000 4.000000 4.000000
250 1 4.500000 4.500000 4.500000
