ITEM: TIMESTEP
1
ITEM: NUMBER OF ATOMS
2001
ITEM: BOX BOUNDS pp pp pp
0.000000 31.400000
0.000000 31.400000
0.000000 31.400000
ITEM: ATOMS id type x y z pe fx fy fz
1 1         0.00000000000000000000         0.00000000000000000000         0.00000000000000000000         0.00000000000000000000       -20.78731572332064914121       -20.78731572332064914121       -20.78731572332064914121
2 1         1.57000000000000006217         1.57000000000000006217         1.57000000000000006217         0.00000000000000000000        74.28678356446199870788        74.28678356446199870788        74.28678356446199870788
3 1         0.00000000000000000000         0.00000000000000000000         3.14000000000000012434         0.00000000000000000000        -1.10683435562474041802        -1.10683435562474064007         2.37476715452914799442
4 1         1.57000000000000006217         1.57000000000000006217         4.70999999999999996447         0.00000000000000000000        -0.03297533830442690717        -0.03297533830442694880        -0.24751302097115723821
5 1         0.00000000000000000000         0.00000000000000000000         6.28000000000000024869         0.00000000000000000000        -0.00138215791473906419        -0.00138215791473895316         0.01016444894419907263
6 1         1.57000000000000006217         1.57000000000000006217         7.85000000000000053291         0.00000000000000000000         0.00000132470803644960         0.00000132470803664042         0.00089751643696517770
7 1         0.00000000000000000000         0.00000000000000000000         9.41999999999999992895         0.00000000000000000000        -0.00000000000000043021        -0.00000000000000043021        -0.00000000000000320577
8 1         1.57000000000000006217         1.57000000000000006217        10.99000000000000021316         0.00000000000000000000         0.00000000000000238438         0.00000000000000347725        -0.00000000000000307501
9 1         0.00000000000000000000         0.00000000000000000000        12.56000000000000049738         0.00000000000000000000        -0.00000000000000008327        -0.00000000000000063838        -0.00000000000000108247
10 1         1.57000000000000006217         1.57000000000000006217        14.13000000000000078160         0.00000000000000000000         0.00000000000000365701         0.00000000000000391028        -0.00000000000000154477
11 1         0.00000000000000000000         0.00000000000000000000        15.70000000000000106581         0.00000000000000000000         0.00000000000000099573         0.00000000000000088471        -0.00000000000000047184
12 1         1.57000000000000006217         1.57000000000000006217        17.26999999999999957367         0.00000000000000000000         0.00000000000000456319         0.00000000000000358134        -0.00000000000000440425
13 1         0.00000000000000000000         0.00000000000000000000        18.83999999999999985789         0.00000000000000000000        -0.00000000000000015266        -0.00000000000000070777         0.00000000000000059674
14 1         1.57000000000000006217         1.57000000000000006217        20.41000000000000014211         0.00000000000000000000         0.00000000000000384501         0.00000000000000366113         0.00000000000000188716
15 1         0.00000000000000000000         0.00000000000000000000        21.98000000000000042633         0.00000000000000000000         0.00000000000000029143        -0.00000000000000070777         0.00000000000000001388
16 1         1.57000000000000006217         1.57000000000000006217        23.55000000000000071054         0.00000000000000000000         0.00000000000000340093         0.00000000000000393869         0.00000000000000002754
17 1         0.00000000000000000000         0.00000000000000000000        25.12000000000000099476         0.00000000000000000000        -0.00000007302190567493        -0.00000007302190667413        -0.00009841924107294175
18 1         1.57000000000000006217         1.57000000000000006217        26.69000000000000127898         0.00000000000000000000         0.00018895808907563958         0.00018895808907637163        -0.00726677975794332021
19 1         0.00000000000000000000         0.00000000000000000000        28.26000000000000156319         0.00000000000000000000        -0.00877997301933888287        -0.00877997301933888287        -0.02193851795754606093
20 1         1.57000000000000006217         1.57000000000000006217        29.83000000000000184741         0.00000000000000000000         0.08067107940243181674         0.08067107940243198327        -0.35454159376630028921
21 1         0.00000000000000000000         3.14000000000000012434         0.00000000000000000000         0.00000000000000000000        -1.10683435562474064007         2.37476715452914799442        -1.10683435562474086211
22 1         1.57000000000000006217         4.70999999999999996447         1.57000000000000006217         0.00000000000000000000        -0.03297533830442739289        -0.24751302097115515655        -0.03297533830442618552
23 1         0.00000000000000000000         3.14000000000000012434         3.14000000000000012434         0.00000000000000000000         0.23254071353336941419        -0.48670082196000569175        -0.48670082196000608032
24 1         1.57000000000000006217         4.70999999999999996447         4.70999999999999996447         0.00000000000000000000         0.00974868994724455845         0.05232906767283470456         0.05232906767283442701
25 1         0.00000000000000000000         3.14000000000000012434         6.28000000000000024869         0.00000000000000000000        -0.00124866941036387569         0.00166505351375148547         0.00490198021294174779
26 1         1.57000000000000006217         4.70999999999999996447         7.85000000000000053291         0.00000000000000000000         0.00000000000000339681         0.00004034643650623038         0.00004034643651278091
27 1         0.00000000000000000000         3.14000000000000012434         9.41999999999999992895         0.00000000000000000000         0.00000000000000034694         0.00000000000000008327        -0.00000000000000309475
28 1         1.57000000000000006217         4.70999999999999996447        10.99000000000000021316         0.00000000000000000000         0.00000000000000316500        -0.00000000000000433421        -0.00000000000000294643
29 1         0.00000000000000000000         3.14000000000000012434        12.56000000000000049738         0.00000000000000000000         0.00000000000000036082         0.00000000000000019429        -0.00000000000000083267
30 1         1.57000000000000006217         4.70999999999999996447        14.13000000000000078160         0.00000000000000000000         0.00000000000000348007        -0.00000000000000454519        -0.00000000000000159898
31 1         0.00000000000000000000         3.14000000000000012434        15.70000000000000106581         0.00000000000000000000         0.00000000000000182146         0.00000000000000194289         0.00000000000000250841
32 1         1.57000000000000006217         4.70999999999999996447        17.26999999999999957367         0.00000000000000000000         0.00000000000000423359        -0.00000000000000791815        -0.00000000000000070517
33 1         0.00000000000000000000         3.14000000000000012434        18.83999999999999985789         0.00000000000000000000         0.00000000000000011102         0.00000000000000033307         0.00000000000000064879
34 1         1.57000000000000006217         4.70999999999999996447        20.41000000000000014211         0.00000000000000000000         0.00000000000000441400        -0.00000000000000457013         0.00000000000000192121
35 1         0.00000000000000000000         3.14000000000000012434        21.98000000000000042633         0.00000000000000000000         0.00000000000000034694         0.00000000000000008327         0.00000000000000023592
36 1         1.57000000000000006217         4.70999999999999996447        23.55000000000000071054         0.00000000000000000000         0.00000000000000374787        -0.00000000000000445911        -0.00000000000000000087
37 1         0.00000000000000000000         3.14000000000000012434        25.12000000000000099476         0.00000000000000000000         0.00000000000000034694         0.00000443079610876196        -0.00000605039132038632
38 1         1.57000000000000006217         4.70999999999999996447        26.69000000000000127898         0.00000000000000000000         0.00000224166773085763         0.00031852811041922346        -0.00034790957836449993
39 1         0.00000000000000000000         3.14000000000000012434        28.26000000000000156319         0.00000000000000000000         0.00670546765338758503        -0.01993338334554900504         0.04111660313673287659
40 1         1.57000000000000006217         4.70999999999999996447        29.83000000000000184741         0.00000000000000000000         0.00083397549894130823        -0.01940683743277384424         0.01227307835873595737
41 1         0.00000000000000000000         6.28000000000000024869         0.00000000000000000000         0.00000000000000000000        -0.00138215791473947358         0.01016444894419912814        -0.00138215791473903990
42 1         1.57000000000000006217         7.85000000000000053291         1.57000000000000006217         0.00000000000000000000         0.00000132470803637002         0.00089751643696511785         0.00000132470803660919
43 1         0.00000000000000000000         6.28000000000000024869         3.14000000000000012434         0.00000000000000000000        -0.00124866941036396568         0.00490198021294173739         0.00166505351375159996
44 1         1.57000000000000006217         7.85000000000000053291         4.70999999999999996447         0.00000000000000000000         0.00000000000000348007         0.00004034643651294398         0.00004034643650616793
45 1         0.00000000000000000000         6.28000000000000024869         6.28000000000000024869         0.00000000000000000000        -0.00000000000000115858         0.00014365323157313273         0.00014365323157319865
46 1         1.57000000000000006217         7.85000000000000053291         7.85000000000000053291         0.00000000000000000000         0.00000000000000359109         0.00000000000000255004         0.00000000000000260209
47 1         0.00000000000000000000         6.28000000000000024869         9.41999999999999992895         0.00000000000000000000        -0.00000000000000132511         0.00000000000000406966        -0.00000000000000285904
48 1         1.57000000000000006217         7.85000000000000053291        10.99000000000000021316         0.00000000000000000000         0.00000000000000336905         0.00000000000000200881        -0.00000000000000376110
49 1         0.00000000000000000000         6.28000000000000024869        12.56000000000000049738         0.00000000000000000000        -0.00000000000000086714         0.00000000000000431946        -0.00000000000000083288
50 1         1.57000000000000006217         7.85000000000000053291        14.13000000000000078160         0.00000000000000000000         0.00000000000000410024         0.00000000000000230480        -0.00000000000000176465
51 1         0.00000000000000000000         6.28000000000000024869        15.70000000000000106581         0.00000000000000000000        -0.00000000000000060086         0.00000000000000432402        -0.00000000000000277079
52 1         1.57000000000000006217         7.85000000000000053291        17.26999999999999957367         0.00000000000000000000         0.00000000000000431274         0.00000000000000708461        -0.00000000000000089880
53 1         0.00000000000000000000         6.28000000000000024869        18.83999999999999985789         0.00000000000000000000        -0.00000000000000101286         0.00000000000000479131         0.00000000000000088449
54 1         1.57000000000000006217         7.85000000000000053291        20.41000000000000014211         0.00000000000000000000         0.00000000000000425723         0.00000000000000224473         0.00000000000000185941
55 1         0.00000000000000000000         6.28000000000000024869        21.98000000000000042633         0.00000000000000000000        -0.00000000000000077000         0.00000000000000434722         0.00000000000000023571
56 1         1.57000000000000006217         7.85000000000000053291        23.55000000000000071054         0.00000000000000000000         0.00000000000000403518         0.00000000000000246678         0.00000000000000002754
57 1         0.00000000000000000000         6.28000000000000024869        25.12000000000000099476         0.00000000000000000000        -0.00000000000000077000         0.00000007302191020256        -0.00000007302190584168
58 1         1.57000000000000006217         7.85000000000000053291        26.69000000000000127898         0.00000000000000000000         0.00000000000000392416         0.00000132470803520732        -0.00000132470803282055
59 1         0.00000000000000000000         6.28000000000000024869        28.26000000000000156319         0.00000000000000000000        -0.00004066663569587264         0.00042809540389182610        -0.00042647580867583024
60 1         1.57000000000000006217         7.85000000000000053291        29.83000000000000184741         0.00000000000000000000         0.00000000000000425007         0.00006972790445412130        -0.00004034643651076864
61 1         0.00000000000000000000         9.41999999999999992895         0.00000000000000000000         0.00000000000000000000        -0.00000000000000055858        -0.00000000000000326128        -0.00000000000000049266
62 1         1.57000000000000006217        10.99000000000000021316         1.57000000000000006217         0.00000000000000000000         0.00000000000000213479        -0.00000000000000368564         0.00000000000000352236
63 1         0.00000000000000000000         9.41999999999999992895         3.14000000000000012434         0.00000000000000000000         0.00000000000000043043        -0.00000000000000311925         0.00000000000000014225
64 1         1.57000000000000006217        10.99000000000000021316         4.70999999999999996447         0.00000000000000000000         0.00000000000000249887        -0.00000000000000341827        -0.00000000000000455972
65 1         0.00000000000000000000         9.41999999999999992895         6.28000000000000024869         0.00000000000000000000        -0.00000000000000126266        -0.00000000000000286945         0.00000000000000396905
66 1         1.57000000000000006217        10.99000000000000021316         7.85000000000000053291         0.00000000000000000000         0.00000000000000339681        -0.00000000000000376110         0.00000000000000204003
67 1         0.00000000000000000000         9.41999999999999992895         9.41999999999999992895         0.00000000000000000000        -0.00000000000000174426        -0.00000000000000305398        -0.00000000000000301582
68 1         1.57000000000000006217        10.99000000000000021316        10.99000000000000021316         0.00000000000000000000         0.00000000000000327603        -0.00000000000000343215        -0.00000000000000347031
69 1         0.00000000000000000000         9.41999999999999992895        12.56000000000000049738         0.00000000000000000000        -0.00000000000000225774        -0.00000000000000383114        -0.00000000000000131926
70 1         1.57000000000000006217        10.99000000000000021316        14.13000000000000078160         0.00000000000000000000         0.00000000000000325803        -0.00000000000000341415        -0.00000000000000109244
71 1         0.00000000000000000000         9.41999999999999992895        15.70000000000000106581         0.00000000000000000000        -0.00000000000000138756        -0.00000000000000783770         0.00000000000000084004
72 1         1.57000000000000006217        10.99000000000000021316        17.26999999999999957367         0.00000000000000000000         0.00000000000000345644        -0.00000000000000383808         0.00000000000000269142
73 1         0.00000000000000000000         9.41999999999999992895        18.83999999999999985789         0.00000000000000000000        -0.00000000000000185529        -0.00000000000000327603         0.00000000000000088384
74 1         1.57000000000000006217        10.99000000000000021316        20.41000000000000014211         0.00000000000000000000         0.00000000000000341480        -0.00000000000000355705         0.00000000000000142854
75 1         0.00000000000000000000         9.41999999999999992895        21.98000000000000042633         0.00000000000000000000        -0.00000000000000217448        -0.00000000000000408094         0.00000000000000001301
76 1         1.57000000000000006217        10.99000000000000021316        23.55000000000000071054         0.00000000000000000000         0.00000000000000319276        -0.00000000000000350154         0.00000000000000001301
77 1         0.00000000000000000000         9.41999999999999992895        25.12000000000000099476         0.00000000000000000000        -0.00000000000000217448        -0.00000000000000408094         0.00000000000000001301
78 1         1.57000000000000006217        10.99000000000000021316        26.69000000000000127898         0.00000000000000000000         0.00000000000000330378        -0.00000000000000347378         0.00000000000000000260
79 1         0.00000000000000000000         9.41999999999999992895        28.26000000000000156319         0.00000000000000000000        -0.00000000000000181452        -0.00000000000000338618        -0.00000000000000001388
80 1         1.57000000000000006217        10.99000000000000021316        29.83000000000000184741         0.00000000000000000000         0.00000000000000350067        -0.00000000000000369496        -0.00000000000000005551
81 1         0.00000000000000000000        12.56000000000000049738         0.00000000000000000000         0.00000000000000000000        -0.00000000000000030878        -0.00000000000000129063        -0.00000000000000032613
82 1         1.57000000000000006217        14.13000000000000078160         1.57000000000000006217         0.00000000000000000000         0.00000000000000316717        -0.00000000000000086216         0.00000000000000374483
83 1         0.00000000000000000000        12.56000000000000049738         3.14000000000000012434         0.00000000000000000000        -0.00000000000000024958        -0.00000000000000095431         0.00000000000000017000
84 1         1.57000000000000006217        14.13000000000000078160         4.70999999999999996447         0.00000000000000000000         0.00000000000000311925        -0.00000000000000088428        -0.00000000000000451050
85 1         0.00000000000000000000        12.56000000000000049738         6.28000000000000024869         0.00000000000000000000        -0.00000000000000079082        -0.00000000000000089880         0.00000000000000421885
86 1         1.57000000000000006217        14.13000000000000078160         7.85000000000000053291         0.00000000000000000000         0.00000000000000387819        -0.00000000000000058850         0.00000000000000232214
87 1         0.00000000000000000000        12.56000000000000049738         9.41999999999999992895         0.00000000000000000000        -0.00000000000000208427        -0.00000000000000130538        -0.00000000000000366807
88 1         1.57000000000000006217        14.13000000000000078160        10.99000000000000021316         0.00000000000000000000         0.00000000000000323027        -0.00000000000000061366        -0.00000000000000370906
89 1         0.00000000000000000000        12.56000000000000049738        12.56000000000000049738         0.00000000000000000000        -0.00000000000000135569        -0.00000000000000075027        -0.00000000000000083353
90 1         1.57000000000000006217        14.13000000000000078160        14.13000000000000078160         0.00000000000000000000         0.00000000000000362839        -0.00000000000000063014        -0.00000000000000105688
91 1         0.00000000000000000000        12.56000000000000049738        15.70000000000000106581         0.00000000000000000000        -0.00000000000000112041        -0.00000000000000145392        -0.00000000000000267451
92 1         1.57000000000000006217        14.13000000000000078160        17.26999999999999957367         0.00000000000000000000         0.00000000000000417396        -0.00000000000000092938         0.00000000000000295922
93 1         0.00000000000000000000        12.56000000000000049738        18.83999999999999985789         0.00000000000000000000        -0.00000000000000127242        -0.00000000000000080578         0.00000000000000035649
94 1         1.57000000000000006217        14.13000000000000078160        20.41000000000000014211         0.00000000000000000000         0.00000000000000378538        -0.00000000000000083570         0.00000000000000143613
95 1         0.00000000000000000000        12.56000000000000049738        21.98000000000000042633         0.00000000000000000000        -0.00000000000000125854        -0.00000000000000077802         0.00000000000000004077
96 1         1.57000000000000006217        14.13000000000000078160        23.55000000000000071054         0.00000000000000000000         0.00000000000000356334        -0.00000000000000078019         0.00000000000000004142
97 1         0.00000000000000000000        12.56000000000000049738        25.12000000000000099476         0.00000000000000000000        -0.00000000000000125854        -0.00000000000000077802         0.00000000000000004077
98 1         1.57000000000000006217        14.13000000000000078160        26.69000000000000127898         0.00000000000000000000         0.00000000000000367436        -0.00000000000000064141        -0.00000000000000000716
99 1         0.00000000000000000000        12.56000000000000049738        28.26000000000000156319         0.00000000000000000000        -0.00000000000000123165        -0.00000000000000119349         0.00000000000000022204
100 1         1.57000000000000006217        14.13000000000000078160        29.83000000000000184741         0.00000000000000000000         0.00000000000000377823        -0.00000000000000058287        -0.00000000000000010408
101 1         0.00000000000000000000        15.70000000000000106581         0.00000000000000000000         0.00000000000000000000         0.00000000000000076675        -0.00000000000000061062         0.00000000000000078410
102 1         1.57000000000000006217        17.26999999999999957367         1.57000000000000006217         0.00000000000000000000         0.00000000000000484096        -0.00000000000000366482         0.00000000000000379644
103 1         0.00000000000000000000        15.70000000000000106581         3.14000000000000012434         0.00000000000000000000         0.00000000000000282695         0.00000000000000124336         0.00000000000000057333
104 1         1.57000000000000006217        17.26999999999999957367         4.70999999999999996447         0.00000000000000000000         0.00000000000000521892        -0.00000000000000060108        -0.00000000000000772386
105 1         0.00000000000000000000        15.70000000000000106581         6.28000000000000024869         0.00000000000000000000        -0.00000000000000115598        -0.00000000000000255915         0.00000000000000466402
106 1         1.57000000000000006217        17.26999999999999957367         7.85000000000000053291         0.00000000000000000000         0.00000000000000422947        -0.00000000000000106881         0.00000000000000638725
107 1         0.00000000000000000000        15.70000000000000106581         9.41999999999999992895         0.00000000000000000000        -0.00000000000000152634         0.00000000000000055901        -0.00000000000000691482
108 1         1.57000000000000006217        17.26999999999999957367        10.99000000000000021316         0.00000000000000000000         0.00000000000000410869         0.00000000000000239652        -0.00000000000000383808
109 1         0.00000000000000000000        15.70000000000000106581        12.56000000000000049738         0.00000000000000000000        -0.00000000000000185941        -0.00000000000000221654        -0.00000000000000127697
110 1         1.57000000000000006217        17.26999999999999957367        14.13000000000000078160         0.00000000000000000000         0.00000000000000420172         0.00000000000000209533        -0.00000000000000109244
111 1         0.00000000000000000000        15.70000000000000106581        15.70000000000000106581         0.00000000000000000000        -0.00000000000000114557        -0.00000000000000641718        -0.00000000000000754475
112 1         1.57000000000000006217        17.26999999999999957367        17.26999999999999957367         0.00000000000000000000         0.00000000000000476095         0.00000000000000693109         0.00000000000000692068
113 1         0.00000000000000000000        15.70000000000000106581        18.83999999999999985789         0.00000000000000000000        -0.00000000000000137368        -0.00000000000000241083         0.00000000000000096776
114 1         1.57000000000000006217        17.26999999999999957367        20.41000000000000014211         0.00000000000000000000         0.00000000000000502463         0.00000000000000207039         0.00000000000000145630
115 1         0.00000000000000000000        15.70000000000000106581        21.98000000000000042633         0.00000000000000000000        -0.00000000000000168593        -0.00000000000000224430        -0.00000000000000001409
116 1         1.57000000000000006217        17.26999999999999957367        23.55000000000000071054         0.00000000000000000000         0.00000000000000435849         0.00000000000000168181        -0.00000000000000004250
117 1         0.00000000000000000000        15.70000000000000106581        25.12000000000000099476         0.00000000000000000000        -0.00000000000000168593        -0.00000000000000224430        -0.00000000000000001409
118 1         1.57000000000000006217        17.26999999999999957367        26.69000000000000127898         0.00000000000000000000         0.00000000000000435849         0.00000000000000232019         0.00000000000000052996
119 1         0.00000000000000000000        15.70000000000000106581        28.26000000000000156319         0.00000000000000000000        -0.00000000000000171391        -0.00000000000000223432        -0.00000000000000001388
120 1         1.57000000000000006217        17.26999999999999957367        29.83000000000000184741         0.00000000000000000000         0.00000000000000483294         0.00000000000000259862        -0.00000000000000030531
121 1         0.00000000000000000000        18.83999999999999985789         0.00000000000000000000         0.00000000000000000000        -0.00000000000000022551         0.00000000000000117961        -0.00000000000000057593
122 1         1.57000000000000006217        20.41000000000000014211         1.57000000000000006217         0.00000000000000000000         0.00000000000000345318         0.00000000000000221936         0.00000000000000396991
123 1         0.00000000000000000000        18.83999999999999985789         3.14000000000000012434         0.00000000000000000000         0.00000000000000010430         0.00000000000000069714         0.00000000000000008674
124 1         1.57000000000000006217        20.41000000000000014211         4.70999999999999996447         0.00000000000000000000         0.00000000000000372011         0.00000000000000157773        -0.00000000000000485462
125 1         0.00000000000000000000        18.83999999999999985789         6.28000000000000024869         0.00000000000000000000        -0.00000000000000092959         0.00000000000000068326         0.00000000000000460743
126 1         1.57000000000000006217        20.41000000000000014211         7.85000000000000053291         0.00000000000000000000         0.00000000000000372987         0.00000000000000180390         0.00000000000000230718
127 1         0.00000000000000000000        18.83999999999999985789         9.41999999999999992895         0.00000000000000000000        -0.00000000000000107813         0.00000000000000049873        -0.00000000000000323786
128 1         1.57000000000000006217        20.41000000000000014211        10.99000000000000021316         0.00000000000000000000         0.00000000000000338705         0.00000000000000169569        -0.00000000000000412604
129 1         0.00000000000000000000        18.83999999999999985789        12.56000000000000049738         0.00000000000000000000        -0.00000000000000203570         0.00000000000000049873        -0.00000000000000062537
130 1         1.57000000000000006217        20.41000000000000014211        14.13000000000000078160         0.00000000000000000000         0.00000000000000348007         0.00000000000000172063        -0.00000000000000087040
131 1         0.00000000000000000000        18.83999999999999985789        15.70000000000000106581         0.00000000000000000000        -0.00000000000000132858         0.00000000000000089143        -0.00000000000000299023
132 1         1.57000000000000006217        20.41000000000000014211        17.26999999999999957367         0.00000000000000000000         0.00000000000000388665         0.00000000000000174773         0.00000000000000291347
133 1         0.00000000000000000000        18.83999999999999985789        18.83999999999999985789         0.00000000000000000000        -0.00000000000000130018         0.00000000000000122038         0.00000000000000060629
134 1         1.57000000000000006217        20.41000000000000014211        20.41000000000000014211         0.00000000000000000000         0.00000000000000385889         0.00000000000000213284         0.00000000000000163671