ITEM: TIMESTEP
1
ITEM: NUMBER OF ATOMS
1372
ITEM: BOX BOUNDS pp pp pp
0.000000 29.610000
0.000000 29.610000
0.000000 29.610000
ITEM: ATOMS id type x y z
2 1 2.115000 2.115000 0.000000 0.000000 -0.001900 -0.001896 -0.000001
3 1 2.115000 0.000000 2.115000 0.000000 -0.001900 -0.000001 -0.001896
4 1 0.000000 2.115000 2.115000 0.000000 -0.000013 -0.001903 -0.001903
5 1 0.000000 0.000000 4.230000 0.000000 -0.000005 -0.000001 0.001091
6 1 2.115000 2.115000 4.230000 0.000000 0.000124 0.000125 0.000240
7 1 2.115000 0.000000 6.345000 0.000000 0.000019 0.000003 0.000051
8 1 0.000000 2.115000 6.345000 0.000000 0.000002 0.000019 0.000051
9 1 0.000000 0.000000 8.460000 0.000000 0.000003 0.000003 0.000012
10 1 2.115000 2.115000 8.460000 0.000000 0.000005 0.000005 0.000009
11 1 2.115000 0.000000 10.575000 0.000000 0.000004 0.000003 0.000005
12 1 0.000000 2.115000 10.575000 0.000000 0.000003 0.000004 0.000005
13 1 0.000000 0.000000 12.690000 0.000000 0.000003 0.000003 -0.000003
14 1 2.115000 2.115000 12.690000 0.000000 0.000003 0.000003 -0.000003
15 1 2.115000 0.000000 14.805000 0.000000 0.000003 0.000003 -0.000003
16 1 0.000000 2.115000 14.805000 0.000000 0.000003 0.000003 -0.000003
17 1 0.000000 0.000000 16.920000 0.000000 0.000003 0.000003 -0.000003
18 1 2.115000 2.115000 16.920000 0.000000 0.000003 0.000003 -0.000003
19 1 2.115000 0.000000 19.035000 0.000000 0.000003 0.000003 0.000003
20 1 0.000000 2.115000 19.035000 0.000000 0.000002 0.000003 0.000004
21 1 0.000000 0.000000 21.150000 0.000000 -0.000005 -0.000001 -0.000001
22 1 2.115000 2.115000 21.150000 0.000000 0.000003 0.000004 -0.000008
23 1 2.115000 0.000000 23.265000 0.000000 0.000007 -0.000001 -0.000044
24 1 0.000000 2.115000 23.265000 0.000000 -0.000013 0.000004 -0.000037
25 1 0.000000 0.000000 25.380000 0.000000 -0.000242 -0.000119 -0.000988
26 1 2.115000 2.115000 25.380000 0.000000 0.000113 0.000117 -0.000244
27 1 2.115000 0.000000 27.495000 0.000000 -0.001937 -0.000013 0.001894
28 1 0.000000 2.115000 27.495000 0.000000 -0.000076 -0.001967 0.001894
29 1 0.000000 4.230000 0.000000 0.000000 -0.000005 0.001091 -0.000001
30 1 2.115000 6.345000 0.000000 0.000000 0.000019 0.000051 0.000003
31 1 2.115000 4.230000 2.115000 0.000000 0.000124 0.000240 0.000125
32 1 0.000000 6.345000 2.115000 0.000000 0.000002 0.000051 0.000019
33 1 0.000000 4.230000 4.230000 0.000000 0.000002 0.000074 0.000074
34 1 2.115000 6.345000 4.230000 0.000000 0.000007 0.000016 0.000005
35 1 2.115000 4.230000 6.345000 0.000000 0.000007 0.000005 0.000016
36 1 0.000000 6.345000 6.345000 0.000000 0.000003 0.000008 0.000008
37 1 0.000000 4.230000 8.460000 0.000000 0.000003 -0.000002 0.000007
38 1 2.115000 6.345000 8.460000 0.000000 0.000004 0.000004 0.000005
39 1 2.115000 4.230000 10.575000 0.000000 0.000004 -0.000003 0.000004
40 1 0.000000 6.345000 10.575000 0.000000 0.000003 0.000004 0.000004
41 1 0.000000 4.230000 12.690000 0.000000 0.000003 -0.000003 -0.000003
42 1 2.115000 6.345000 12.690000 0.000000 0.000003 0.000003 -0.000003
43 1 2.115000 4.230000 14.805000 0.000000 0.000003 -0.000003 -0.000003
44 1 0.000000 6.345000 14.805000 0.000000 0.000003 0.000003 -0.000003
45 1 0.000000 4.230000 16.920000 0.000000 0.000003 -0.000003 -0.000003
46 1 2.115000 6.345000 16.920000 0.000000 0.000003 0.000003 -0.000003
47 1 2.115000 4.230000 19.035000 0.000000 0.000003 -0.000003 0.000003
48 1 0.000000 6.345000 19.035000 0.000000 0.000003 0.000003 0.000003
49 1 0.000000 4.230000 21.150000 0.000000 0.000002 -0.000003 -0.000005
50 1 2.115000 6.345000 21.150000 0.000000 0.000003 0.000004 -0.000004
51 1 2.115000 4.230000 23.265000 0.000000 0.000006 0.000003 -0.000015
52 1 0.000000 6.345000 23.265000 0.000000 0.000002 0.000006 -0.000007
53 1 0.000000 4.230000 25.380000 0.000000 -0.000005 0.000063 -0.000079
54 1 2.115000 6.345000 25.380000 0.000000 0.000007 0.000015 -0.000012
55 1 2.115000 4.230000 27.495000 0.000000 0.000121 0.000237 -0.000119
56 1 0.000000 6.345000 27.495000 0.000000 0.000001 0.000049 -0.000013
57 1 0.000000 8.460000 0.000000 0.000000 0.000003 0.000012 0.000003
58 1 2.115000 10.575000 0.000000 0.000000 0.000004 0.000005 0.000003
59 1 2.115000 8.460000 2.115000 0.000000 0.000005 0.000009 0.000005
60 1 0.000000 10.575000 2.115000 0.000000 0.000003 0.000005 0.000004
61 1 0.000000 8.460000 4.230000 0.000000 0.000003 0.000007 -0.000002
62 1 2.115000 10.575000 4.230000 0.000000 0.000004 0.000004 -0.000003
63 1 2.115000 8.460000 6.345000 0.000000 0.000004 0.000005 0.000004
64 1 0.000000 10.575000 6.345000 0.000000 0.000003 0.000004 0.000004
65 1 0.000000 8.460000 8.460000 0.000000 0.000003 0.000004 0.000004
66 1 2.115000 10.575000 8.460000 0.000000 0.000003 0.000004 0.000004
67 1 2.115000 8.460000 10.575000 0.000000 0.000003 0.000004 0.000004
68 1 0.000000 10.575000 10.575000 0.000000 0.000003 0.000004 0.000004
69 1 0.000000 8.460000 12.690000 0.000000 0.000003 0.000003 -0.000003
70 1 2.115000 10.575000 12.690000 0.000000 0.000003 0.000003 -0.000003
71 1 2.115000 8.460000 14.805000 0.000000 0.000003 0.000003 -0.000003
72 1 0.000000 10.575000 14.805000 0.000000 0.000003 0.000003 -0.000003
73 1 0.000000 8.460000 16.920000 0.000000 0.000003 0.000003 -0.000003
74 1 2.115000 10.575000 16.920000 0.000000 0.000003 0.000003 -0.000003
75 1 2.115000 8.460000 19.035000 0.000000 0.000003 0.000003 0.000003
76 1 0.000000 10.575000 19.035000 0.000000 0.000003 0.000003 0.000003
77 1 0.000000 8.460000 21.150000 0.000000 0.000003 0.000004 -0.000004
78 1 2.115000 10.575000 21.150000 0.000000 0.000003 0.000004 -0.000004
79 1 2.115000 8.460000 23.265000 0.000000 0.000003 0.000004 -0.000004
80 1 0.000000 10.575000 23.265000 0.000000 0.000003 0.000004 -0.000004
81 1 0.000000 8.460000 25.380000 0.000000 0.000003 0.000006 -0.000005
82 1 2.115000 10.575000 25.380000 0.000000 0.000003 0.000004 -0.000004
83 1 2.115000 8.460000 27.495000 0.000000 0.000005 0.000009 0.000002
84 1 0.000000 10.575000 27.495000 0.000000 0.000003 0.000005 0.000003
85 1 0.000000 12.690000 0.000000 0.000000 0.000003 -0.000003 0.000003
86 1 2.115000 14.805000 0.000000 0.000000 0.000003 -0.000003 0.000003
87 1 2.115000 12.690000 2.115000 0.000000 0.000003 -0.000003 0.000003
88 1 0.000000 14.805000 2.115000 0.000000 0.000003 -0.000003 0.000003
89 1 0.000000 12.690000 4.230000 0.000000 0.000003 -0.000003 -0.000003
90 1 2.115000 14.805000 4.230000 0.000000 0.000003 -0.000003 -0.000003
91 1 2.115000 12.690000 6.345000 0.000000 0.000003 -0.000003 0.000003
92 1 0.000000 14.805000 6.345000 0.000000 0.000003 -0.000003 0.000003
93 1 0.000000 12.690000 8.460000 0.000000 0.000003 -0.000003 0.000003
94 1 2.115000 14.805000 8.460000 0.000000 0.000003 -0.000003 0.000003
95 1 2.115000 12.690000 10.575000 0.000000 0.000003 -0.000003 0.000003
96 1 0.000000 14.805000 10.575000 0.000000 0.000003 -0.000003 0.000003
97 1 0.000000 12.690000 12.690000 0.000000 0.000003 -0.000003 -0.000003
98 1 2.115000 14.805000 12.690000 0.000000 0.000003 -0.000003 -0.000003
99 1 2.115000 12.690000 14.805000 0.000000 0.000003 -0.000003 -0.000003
100 1 0.000000 14.805000 14.805000 0.000000 0.000003 -0.000003 -0.000003
101 1 0.000000 12.690000 16.920000 0.000000 0.000003 -0.000003 -0.000003
102 1 2.115000 14.805000 16.920000 0.000000 0.000003 -0.000003 -0.000003
103 1 2.115000 12.690000 19.035000 0.000000 0.000003 -0.000003 0.000003
104 1 0.000000 14.805000 19.035000 0.000000 0.000003 -0.000003 0.000003
105 1 0.000000 12.690000 21.150000 0.000000 0.000003 -0.000003 -0.000003
106 1 2.115000 14.805000 21.150000 0.000000 0.000003 -0.000003 -0.000003
107 1 2.115000 12.690000 23.265000 0.000000 0.000003 -0.000003 -0.000003
108 1 0.000000 14.805000 23.265000 0.000000 0.000003 -0.000003 -0.000003
109 1 0.000000 12.690000 25.380000 0.000000 0.000003 -0.000003 -0.000003
110 1 2.115000 14.805000 25.380000 0.000000 0.000003 -0.000003 -0.000003
111 1 2.115000 12.690000 27.495000 0.000000 0.000003 -0.000003 0.000003
112 1 0.000000 14.805000 27.495000 0.000000 0.000003 -0.000003 0.000003
113 1 0.000000 16.920000 0.000000 0.000000 0.000003 -0.000003 0.000003
114 1 2.115000 19.035000 0.000000 0.000000 0.000003 0.000003 0.000003
115 1 2.115000 16.920000 2.115000 0.000000 0.000003 -0.000003 0.000003
116 1 0.000000 19.035000 2.115000 0.000000 0.000002 0.000004 0.000003
117 1 0.000000 16.920000 4.230000 0.000000 0.000003 -0.000003 -0.000003
118 1 2.115000 19.035000 4.230000 0.000000 0.000003 0.000003 -0.000003
119 1 2.115000 16.920000 6.345000 0.000000 0.000003 -0.000003 0.000003
120 1 0.000000 19.035000 6.345000 0.000000 0.000003 0.000003 0.000003
121 1 0.000000 16.920000 8.460000 0.000000 0.000003 -0.000003 0.000003
122 1 2.115000 19.035000 8.460000 0.000000 0.000003 0.000003 0.000003
123 1 2.115000 16.920000 10.575000 0.000000 0.000003 -0.000003 0.000003
124 1 0.000000 19.035000 10.575000 0.000000 0.000003 0.000003 0.000003
125 1 0.000000 16.920000 12.690000 0.000000 0.000003 -0.000003 -0.000003
126 1 2.115000 19.035000 12.690000 0.000000 0.000003 0.000003 -0.000003
127 1 2.115000 16.920000 14.805000 0.000000 0.000003 -0.000003 -0.000003
128 1 0.000000 19.035000 14.805000 0.000000 0.000003 0.000003 -0.000003
129 1 0.000000 16.920000 16.920000 0.000000 0.000003 -0.000003 -0.000003
130 1 2.115000 19.035000 16.920000 0.000000 0.000003 0.000003 -0.000003
131 1 2.115000 16.920000 19.035000 0.000000 0.000003 -0.000003 0.000003
132 1 0.000000 19.035000 19.035000 0.000000 0.000003 0.000004 0.000004
133 1 0.000000 16.920000 21.150000 0.000000 0.000003 -0.000003 -0.000003
134 1 2.115000 19.035000 21.150000 0.000000 0.000003 0.000004 -0.000003
135 1 2.115000 16.920000 23.265000 0.000000 0.000003 -0.000003 -0.000003
136 1 0.000000 19.035000 23.265000 0.000000 0.000002 0.000005 -0.000003
137 1 0.000000 16.920000 25.380000 0.000000 0.000003 -0.000003 -0.000003
138 1 2.115000 19.035000 25.380000 0.000000 0.000002 0.000004 -0.000003
139 1 2.115000 16.920000 27.495000 0.000000 0.000003 -0.000003 0.000003
140 1 0.000000 19.035000 27.495000 0.000000 0.000001 0.000006 0.000003
141 1 0.000000 21.150000 0.000000 0.000000 -0.000005 -0.000001 -0.000001
142 1 2.115000 23.265000 0.000000 0.000000 0.000007 -0.000044 -0.000001
143 1 2.115000 21.150000 2.115000 0.000000 0.000003 -0.000008 0.000004
144 1 0.000000 23.265000 2.115000 0.000000 -0.000013 -0.000037 0.000004
145 1 0.000000 21.150000 4.230000 0.000000 0.000002 -0.000005 -0.000003
146 1 2.115000 23.265000 4.230000 0.000000 0.000006 -0.000015 0.000003
147 1 2.115000 21.150000 6.345000 0.000000 0.000003 -0.000004 0.000004
148 1 0.000000 23.265000 6.345000 0.000000 0.000002 -0.000007 0.000006
149 1 0.000000 21.150000 8.460000 0.000000 0.000003 -0.000004 0.000004
150 1 2.115000 23.265000 8.460000 0.000000 0.000003 -0.000004 0.000004
151 1 2.115000 21.150000 10.575000 0.000000 0.000003 -0.000004 0.000004
152 1 0.000000 23.265000 10.575000 0.000000 0.000003 -0.000004 0.000004
153 1 0.000000 21.150000 12.690000 0.000000 0.000003 -0.000003 -0.000003
154 1 2.115000 23.265000 12.690000 0.000000 0.000003 -0.000003 -0.000003
155 1 2.115000 21.150000 14.805000 0.000000 0.000003 -0.000003 -0.000003
156 1 0.000000 23.265000 14.805000 0.000000 0.000003 -0.000003 -0.000003
157 1 0.000000 21.150000 16.920000 0.000000 0.000003 -0.000003 -0.000003
158 1 2.115000 23.265000 16.920000 0.000000 0.000003 -0.000003 -0.000003
159 1 2.115000 21.150000 19.035000 0.000000 0.000003 -0.000003 0.000004
160 1 0.000000 23.265000 19.035000 0.000000 0.000002 -0.000003 0.000005
161 1 0.000000 21.150000 21.150000 0.000000 0.000002 -0.000002 -0.000002
162 1 2.115000 23.265000 21.150000 0.000000 0.000002 -0.000003 -0.000003
163 1 2.115000 21.150000 23.265000 0.000000 0.000002 -0.000003 -0.000003
164 1 0.000000 23.265000 23.265000 0.000000 -0.000013 0.000008 0.000008
165 1 0.000000 21.150000 25.380000 0.000000 -0.000005 0.000005 -0.000001
166 1 2.115000 23.265000 25.380000 0.000000 -0.000005 -0.000008 -0.000008
167 1 2.115000 21.150000 27.495000 0.000000 0.000000 -0.000005 0.000002
168 1 0.000000 23.265000 27.495000 0.000000 -0.000076 0.000027 -0.000013
169 1 0.000000 25.380000 0.000000 0.000000 -0.000242 -0.000988 -0.000119
170 1 2.115000 27.495000 0.000000 0.000000 -0.001937 0.001894 -0.000013
171 1 2.115000 25.380000 2.115000 0.000000 0.000113 -0.000244 0.000117
172 1 0.000000 27.495000 2.115000 0.000000 -0.000076 0.001894 -0.001967
173 1 0.000000 25.380000 4.230000 0.000000 -0.000005 -0.000079 0.000063
174 1 2.115000 27.495000 4.230000 0.000000 0.000121 -0.000119 0.000237
175 1 2.115000 25.380000 6.345000 0.000000 0.000007 -0.000012 0.000015
176 1 0.000000 27.495000 6.345000 0.000000 0.000001 -0.000013 0.000049
177 1 0.000000 25.380000 8.460000 0.000000 0.000003 -0.000005 0.000006
178 1 2.115000 27.495000 8.460000 0.000000 0.000005 0.000002 0.000009
179 1 2.115000 25.380000 10.575000 0.000000 0.000003 -0.000004 0.000004
180 1 0.000000 27.495000 10.575000 0.000000 0.000003 0.000003 0.000005
181 1 0.000000 25.380000 12.690000 0.000000 0.000003 -0.000003 -0.000003
182 1 2.115000 27.495000 12.690000 0.000000 0.000003 0.000003 -0.000003
183 1 2.115000 25.380000 14.805000 0.000000 0.000003 -0.000003 -0.000003
184 1 0.000000 27.495000 14.805000 0.000000 0.000003 0.000003 -0.000003
185 1 0.000000 25.380000 16.920000 0.000000 0.000003 -0.000003 -0.000003
186 1 2.115000 27.495000 16.920000 0.000000 0.000003 0.000003 -0.000003
187 1 2.115000 25.380000 19.035000 0.000000 0.000002 -0.000003 0.000004
188 1 0.000000 27.495000 19.035000 0.000000 0.000001 0.000003 0.000006
189 1 0.000000 25.380000 21.150000 0.000000 -0.000005 -0.000001 0.000005
190 1 2.115000 27.495000 21.150000 0.000000 0.000000 0.000002 -0.000005
191 1 2.115000 25.380000 23.265000 0.000000 -0.000005 -0.000008 -0.000008
192 1 0.000000 27.495000 23.265000 0.000000 -0.000076 -0.000013 0.000027
193 1 0.000000 25.380000 25.380000 0.000000 -0.000242 0.000040 0.000040
194 1 2.115000 27.495000 25.380000 0.000000 0.000077 -0.000119 -0.000232
195 1 2.115000 25.380000 27.495000 0.000000 0.000077 -0.000232 -0.000119
196 1 0.000000 27.495000 27.495000 0.000000 -0.001104 0.001894 0.001894
197 1 4.230000 0.000000 0.000000 0.000000 0.001098 0.000002 0.000002
198 1 6.345000 2.115000 0.000000 0.000000 0.000052 0.000019 0.000003
199 1 6.345000 0.000000 2.115000 0.000000 0.000052 0.000003 0.000019
200 1 4.230000 2.115000 2.115000 0.000000 0.000240 0.000125 0.000125
201 1 4.230000 0.000000 4.230000 0.000000 0.000075 0.000003 0.000075
202 1 6.345000 2.115000 4.230000 0.000000 0.000016 0.000008 0.000005
203 1 6.345000 0.000000 6.345000 0.000000 0.000008 0.000003 0.000008
204 1 4.230000 2.115000 6.345000 0.000000 0.000005 0.000007 0.000016
205 1 4.230000 0.000000 8.460000 0.000000 -0.000002 0.000003 0.000007
206 1 6.345000 2.115000 8.460000 0.000000 0.000004 0.000004 0.000005
207 1 6.345000 0.000000 10.575000 0.000000 0.000004 0.000003 0.000004
208 1 4.230000 2.115000 10.575000 0.000000 -0.000003 0.000004 0.000004
209 1 4.230000 0.000000 12.690000 0.000000 -0.000003 0.000003 -0.000003
210 1 6.345000 2.115000 12.690000 0.000000 0.000003 0.000003 -0.000003
211 1 6.345000 0.000000 14.805000 0.000000 0.000003 0.000003 -0.000003
212 1 4.230000 2.115000 14.805000 0.000000 -0.000003 0.000003 -0.000003
213 1 4.230000 0.000000 16.920000 0.000000 -0.000003 0.000003 -0.000003
214 1 6.345000 2.115000 16.920000 0.000000 0.000003 0.000003 -0.000003
215 1 6.345000 0.000000 19.035000 0.000000 0.000003 0.000003 0.000003
216 1 4.230000 2.115000 19.035000 0.000000 -0.000003 0.000003 0.000003
217 1 4.230000 0.000000 21.150000 0.000000 -0.000003 0.000003 -0.000006
218 1 6.345000 2.115000 21.150000 0.000000 0.000004 0.000004 -0.000005
219 1 6.345000 0.000000 23.265000 0.000000 0.000007 0.000003 -0.000008
220 1 4.230000 2.115000 23.265000 0.000000 0.000003 0.000007 -0.000015
221 1 4.230000 0.000000 25.380000 0.000000 0.000070 0.000002 -0.000081
222 1 6.345000 2.115000 25.380000 0.000000 0.000015 0.000007 -0.000012
223 1 6.345000 0.000000 27.495000 0.000000 0.000051 0.000003 -0.000013
224 1 4.230000 2.115000 27.495000 0.000000 0.000238 0.000124 -0.000119
225 1 4.230000 4.230000 0.000000 0.000000 0.000075 0.000075 0.000003
226 1 6.345000 6.345000 0.000000 0.000000 0.000008 0.000008 0.000003
227 1 6.345000 4.230000 2.115000 0.000000 0.000016 0.000005 0.000008
228 1 4.230000 6.345000 2.115000 0.000000 0.000005 0.000016 0.000007
229 1 4.230000 4.230000 4.230000 0.000000 0.000012 0.000012 0.000012
230 1 6.345000 6.345000 4.230000 0.000000 0.000005 0.000005 -0.000002
231 1 6.345000 4.230000 6.345000 0.000000 0.000005 -0.000002 0.000005
232 1 4.230000 6.345000 6.345000 0.000000 -0.000002 0.000005 0.000005
233 1 4.230000 4.230000 8.460000 0.000000 -0.000002 -0.000002 0.000005
234 1 6.345000 6.345000 8.460000 0.000000 0.000004 0.000004 0.000004
235 1 6.345000 4.230000 10.575000 0.000000 0.000004 -0.000003 0.000004
236 1 4.230000 6.345000 10.575000 0.000000 -0.000003 0.000004 0.000004
237 1 4.230000 4.230000 12.690000 0.000000 -0.000003 -0.000003 -0.000003
238 1 6.345000 6.345000 12.690000 0.000000 0.000003 0.000003 -0.000003
239 1 6.345000 4.230000 14.805000 0.000000 0.000003 -0.000003 -0.000003
240 1 4.230000 6.345000 14.805000 0.000000 -0.000003 0.000003 -0.000003
241 1 4.230000 4.230000 16.920000 0.000000 -0.000003 -0.000003 -0.000004
242 1 6.345000 6.345000 16.920000 0.000000 0.000003 0.000003 -0.000003
243 1 6.345000 4.230000 19.035000 0.000000 0.000003 -0.000003 0.000003
244 1 4.230000 6.345000 19.035000 0.000000 -0.000003 0.000003 0.000003
245 1 4.230000 4.230000 21.150000 0.000000 -0.000003 -0.000003 -0.000005
246 1 6.345000 6.345000 21.150000 0.000000 0.000004 0.000004 -0.000004
247 1 6.345000 4.230000 23.265000 0.000000 0.000005 -0.000002 -0.000005
248 1 4.230000 6.345000 23.265000 0.000000 -0.000002 0.000005 -0.000005
249 1 4.230000 4.230000 25.380000 0.000000 0.000011 0.000011 -0.000019
250 1 6.345000 6.345000 25.380000 0.000000 0.000005 0.000005 -0.000005
251 1 6.345000 4.230000 27.495000 0.000000 0.000016 0.000005 -0.000001
252 1 4.230000 6.345000 27.495000 0.000000 0.000005 0.000016 -0.000001
253 1 4.230000 8.460000 0.000000 0.000000 -0.000002 0.000007 0.000003
254 1 6.345000 10.575000 0.000000 0.000000 0.000004 0.000004 0.000003
255 1 6.345000 8.460000 2.115000 0.000000 0.000004 0.000005 0.000004
256 1 4.230000 10.575000 2.115000 0.000000 -0.000003 0.000004 0.000004
257 1 4.230000 8.460000 4.230000 0.000000 -0.000002 0.000005 -0.000002
258 1 6.345000 10.575000 4.230000 0.000000 0.000004 0.000004 -0.000003
259 1 6.345000 8.460000 6.345000 0.000000 0.000004 0.000004 0.000004
260 1 4.230000 10.575000 6.345000 0.000000 -0.000003 0.000004 0.000004
261 1 4.230000 8.460000 8.460000 0.000000 -0.000003 0.000004 0.000004
262 1 6.345000 10.575000 8.460000 0.000000 0.000003 0.000004 0.000003
263 1 6.345000 8.460000 10.575000 0.000000 0.000003 0.000003 0.000004
264 1 4.230000 10.575000 10.575000 0.000000 -0.000003 0.000003 0.000003
265 1 4.230000 8.460000 12.690000 0.000000 -0.000003 0.000003 -0.000003
266 1 6.345000 10.575000 12.690000 0.000000 0.000003 0.000003 -0.000003
267 1 6.345000 8.460000 14.805000 0.000000 0.000003 0.000003 -0.000003
268 1 4.230000 10.575000 14.805000 0.000000 -0.000003 0.000003 -0.000003
269 1 4.230000 8.460000 16.920000 0.000000 -0.000003 0.000003 -0.000003
270 1 6.345000 10.575000 16.920000 0.000000 0.000003 0.000003 -0.000003
271 1 6.345000 8.460000 19.035000 0.000000 0.000003 0.000003 0.000003
272 1 4.230000 10.575000 19.035000 0.000000 -0.000003 0.000003 0.000003
273 1 4.230000 8.460000 21.150000 0.000000 -0.000003 0.000004 -0.000004
274 1 6.345000 10.575000 21.150000 0.000000 0.000003 0.000004 -0.000003
275 1 6.345000 8.460000 23.265000 0.000000 0.000004 0.000004 -0.000004
276 1 4.230000 10.575000 23.265000 0.000000 -0.000003 0.000004 -0.000004
277 1 4.230000 8.460000 25.380000 0.000000 -0.000003 0.000005 -0.000004
278 1 6.345000 10.575000 25.380000 0.000000 0.000004 0.000004 -0.000004
279 1 6.345000 8.460000 27.495000 0.000000 0.000004 0.000005 0.000003
280 1 4.230000 10.575000 27.495000 0.000000 -0.000003 0.000004 0.000003
281 1 4.230000 12.690000 0.000000 0.000000 -0.000003 -0.000003 0.000003
282 1 6.345000 14.805000 0.000000 0.000000 0.000003 -0.000003 0.000003
283 1 6.345000 12.690000 2.115000 0.000000 0.000003 -0.000003 0.000003
284 1 4.230000 14.805000 2.115000 0.000000 -0.000003 -0.000003 0.000003
285 1 4.230000 12.690000 4.230000 0.000000 -0.000003 -0.000003 -0.000003
286 1 6.345000 14.805000 4.230000 0.000000 0.000003 -0.000003 -0.000003
287 1 6.345000 12.690000 6.345000 0.000000 0.000003 -0.000003 0.000003
288 1 4.230000 14.805000 6.345000 0.000000 -0.000003 -0.000003 0.000003
289 1 4.230000 12.690000 8.460000 0.000000 -0.000003 -0.000003 0.000003
290 1 6.345000 14.805000 8.460000 0.000000 0.000003 -0.000003 0.000003
291 1 6.345000 12.690000 10.575000 0.000000 0.000003 -0.000003 0.000003
292 1 4.230000 14.805000 10.575000 0.000000 -0.000003 -0.000003 0.000003
293 1 4.230000 12.690000 12.690000 0.000000 -0.000003 -0.000003 -0.000003
294 1 6.345000 14.805000 12.690000 0.000000 0.000003 -0.000003 -0.000003
295 1 6.345000 12.690000 14.805000 0.000000 0.000003 -0.000003 -0.000003
296 1 4.230000 14.805000 14.805000 0.000000 -0.000003 -0.000003 -0.000003
297 1 4.230000 12.690000 16.920000 0.000000 -0.000003 -0.000003 -0.000003
298 1 6.345000 14.805000 16.920000 0.000000 0.000003 -0.000003 -0.000003
299 1 6.345000 12.690000 19.035000 0.000000 0.000003 -0.000003 0.000003
300 1 4.230000 14.805000 19.035000 0.000000 -0.000003 -0.000003 0.000003
301 1 4.230000 12.690000 21.150000 0.000000 -0.000003 -0.000003 -0.000003
302 1 6.345000 14.805000 21.150000 0.000000 0.000003 -0.000003 -0.000003
303 1 6.345000 12.690000 23.265000 0.000000 0.000003 -0.000003 -0.000003
304 1 4.230000 14.805000 23.265000 0.000000 -0.000003 -0.000003 -0.000003
305 1 4.230000 12.690000 25.380000 0.000000 -0.000003 -0.000003 -0.000003
306 1 6.345000 14.805000 25.380000 0.000000 0.000003 -0.000003 -0.000003
307 1 6.345000 12.690000 27.495000 0.000000 0.000003 -0.000003 0.000003
308 1 4.230000 14.805000 27.495000 0.000000 -0.000003 -0.000003 0.000003
309 1 4.230000 16.920000 0.000000 0.000000 -0.000003 -0.000003 0.000003
310 1 6.345000 19.035000 0.000000 0.000000 0.000003 0.000003 0.000003
311 1 6.345000 16.920000 2.115000 0.000000 0.000003 -0.000003 0.000003
312 1 4.230000 19.035000 2.115000 0.000000 -0.000003 0.000003 0.000003
313 1 4.230000 16.920000 4.230000 0.000000 -0.000003 -0.000004 -0.000003
314 1 6.345000 19.035000 4.230000 0.000000 0.000003 0.000003 -0.000003
315 1 6.345000 16.920000 6.345000 0.000000 0.000003 -0.000003 0.000003
316 1 4.230000 19.035000 6.345000 0.000000 -0.000003 0.000003 0.000003
317 1 4.230000 16.920000 8.460000 0.000000 -0.000003 -0.000003 0.000003
318 1 6.345000 19.035000 8.460000 0.000000 0.000003 0.000003 0.000003
319 1 6.345000 16.920000 10.575000 0.000000 0.000003 -0.000003 0.000003
320 1 4.230000 19.035000 10.575000 0.000000 -0.000003 0.000003 0.000003
321 1 4.230000 16.920000 12.690000 0.000000 -0.000003 -0.000003 -0.000003
322 1 6.345000 19.035000 12.690000 0.000000 0.000003 0.000003 -0.000003
323 1 6.345000 16.920000 14.805000 0.000000 0.000003 -0.000003 -0.000003
324 1 4.230000 19.035000 14.805000 0.000000 -0.000003 0.000003 -0.000003
325 1 4.230000 16.920000 16.920000 0.000000 -0.000003 -0.000003 -0.000003
326 1 6.345000 19.035000 16.920000 0.000000 0.000003 0.000003 -0.000003
327 1 6.345000 16.920000 19.035000 0.000000 0.000003 -0.000003 0.000003
328 1 4.230000 19.035000 19.035000 0.000000 -0.000003 0.000003 0.000003
329 1 4.230000 16.920000 21.150000 0.000000 -0.000003 -0.000003 -0.000003
330 1 6.345000 19.035000 21.150000 0.000000 0.000003 0.000003 -0.000003
331 1 6.345000 16.920000 23.265000 0.000000 0.000003 -0.000003 -0.000003
332 1 4.230000 19.035000 23.265000 0.000000 -0.000004 0.000003 -0.000003
333 1 4.230000 16.920000 25.380000 0.000000 -0.000003 -0.000003 -0.000003
334 1 6.345000 19.035000 25.380000 0.000000 0.000003 0.000003 -0.000003
335 1 6.345000 16.920000 27.495000 0.000000 0.000003 -0.000003 0.000003
336 1 4.230000 19.035000 27.495000 0.000000 -0.000004 0.000003 0.000003
337 1 4.230000 21.150000 0.000000 0.000000 -0.000003 -0.000006 0.000003
338 1 6.345000 23.265000 0.000000 0.000000 0.000007 -0.000008 0.000003
339 1 6.345000 21.150000 2.115000 0.000000 0.000004 -0.000005 0.000004
340 1 4.230000 23.265000 2.115000 0.000000 0.000003 -0.000015 0.000007
341 1 4.230000 21.150000 4.230000 0.000000 -0.000003 -0.000005 -0.000003
342 1 6.345000 23.265000 4.230000 0.000000 0.000005 -0.000005 -0.000002
343 1 6.345000 21.150000 6.345000 0.000000 0.000004 -0.000004 0.000004
344 1 4.230000 23.265000 6.345000 0.000000 -0.000002 -0.000005 0.000005
345 1 4.230000 21.150000 8.460000 0.000000 -0.000003 -0.000004 0.000004
346 1 6.345000 23.265000 8.460000 0.000000 0.000004 -0.000004 0.000004
347 1 6.345000 21.150000 10.575000 0.000000 0.000003 -0.000003 0.000004
348 1 4.230000 23.265000 10.575000 0.000000 -0.000003 -0.000004 0.000004
349 1 4.230000 21.150000 12.690000 0.000000 -0.000003 -0.000003 -0.000003
350 1 6.345000 23.265000 12.690000 0.000000 0.000003 -0.000003 -0.000003
351 1 6.345000 21.150000 14.805000 0.000000 0.000003 -0.000003 -0.000003
352 1 4.230000 23.265000 14.805000 0.000000 -0.000003 -0.000003 -0.000003
353 1 4.230000 21.150000 16.920000 0.000000 -0.000003 -0.000003 -0.000003
354 1 6.345000 23.265000 16.920000 0.000000 0.000003 -0.000003 -0.000003
355 1 6.345000 21.150000 19.035000 0.000000 0.000003 -0.000003 0.000003
356 1 4.230000 23.265000 19.035000 0.000000 -0.000004 -0.000003 0.000003
357 1 4.230000 21.150000 21.150000 0.000000 -0.000004 -0.000003 -0.000003
358 1 6.345000 23.265000 21.150000 0.000000 0.000003 -0.000004 -0.000004
359 1 6.345000 21.150000 23.265000 0.000000 0.000003 -0.000004 -0.000004
360 1 4.230000 23.265000 23.265000 0.000000 -0.000004 -0.000004 -0.000004
361 1 4.230000 21.150000 25.380000 0.000000 -0.000004 -0.000004 -0.000004
362 1 6.345000 23.265000 25.380000 0.000000 0.000004 -0.000005 -0.000005
363 1 6.345000 21.150000 27.495000 0.000000 0.000004 -0.000004 0.000003
364 1 4.230000 23.265000 27.495000 0.000000 0.000001 -0.000014 -0.000001
365 1 4.230000 25.380000 0.000000 0.000000 0.000070 -0.000081 0.000002
366 1 6.345000 27.495000 0.000000 0.000000 0.000051 -0.000013 0.000003
367 1 6.345000 25.380000 2.115000 0.000000 0.000015 -0.000012 0.000007
368 1 4.230000 27.495000 2.115000 0.000000 0.000238 -0.000119 0.000124
369 1 4.230000 25.380000 4.230000 0.000000 0.000011 -0.000019 0.000011
370 1 6.345000 27.495000 4.230000 0.000000 0.000016 -0.000001 0.000005
371 1 6.345000 25.380000 6.345000 0.000000 0.000005 -0.000005 0.000005
372 1 4.230000 27.495000 6.345000 0.000000 0.000005 -0.000001 0.000016
373 1 4.230000 25.380000 8.460000 0.000000 -0.000003 -0.000004 0.000005
374 1 6.345000 27.495000 8.460000 0.000000 0.000004 0.000003 0.000005
375 1 6.345000 25.380000 10.575000 0.000000 0.000004 -0.000004 0.000004
376 1 4.230000 27.495000 10.575000 0.000000 -0.000003 0.000003 0.000004
377 1 4.230000 25.380000 12.690000 0.000000 -0.000003 -0.000003 -0.000003
378 1 6.345000 27.495000 12.690000 0.000000 0.000003 0.000003 -0.000003
379 1 6.345000 25.380000 14.805000 0.000000 0.000003 -0.000003 -0.000003
380 1 4.230000 27.495000 14.805000 0.000000 -0.000003 0.000003 -0.000003
381 1 4.230000 25.380000 16.920000 0.000000 -0.000003 -0.000003 -0.000003
382 1 6.345000 27.495000 16.920000 0.000000 0.000003 0.000003 -0.000003
383 1 6.345000 25.380000 19.035000 0.000000 0.000003 -0.000003 0.000003
384 1 4.230000 27.495000 19.035000 0.000000 -0.000004 0.000003 0.000003
385 1 4.230000 25.380000 21.150000 0.000000 -0.000004 -0.000004 -0.000004
386 1 6.345000 27.495000 21.150000 0.000000 0.000004 0.000003 -0.000004
387 1 6.345000 25.380000 23.265000 0.000000 0.000004 -0.000005 -0.000005
388 1 4.230000 27.495000 23.265000 0.000000 0.000001 -0.000001 -0.000014
389 1 4.230000 25.380000 25.380000 0.000000 0.000006 -0.000018 -0.000018
390 1 6.345000 27.495000 25.380000 0.000000 0.000014 -0.000001 -0.000012
391 1 6.345000 25.380000 27.495000 0.000000 0.000014 -0.000012 -0.000001
392 1 4.230000 27.495000 27.495000 0.000000 0.000232 -0.000119 -0.000119
393 1 8.460000 0.000000 0.000000 0.000000 0.000013 0.000003 0.000003
394 1 10.575000 2.115000 0.000000 0.000000 0.000005 0.000004 0.000003
395 1 10.575000 0.000000 2.115000 0.000000 0.000005 0.000003 0.000004
396 1 8.460000 2.115000 2.115000 0.000000 0.000009 0.000005 0.000005
397 1 8.460000 0.000000 4.230000 0.000000 0.000007 0.000003 -0.000001
398 1 10.575000 2.115000 4.230000 0.000000 0.000004 0.000004 -0.000003
399 1 10.575000 0.000000 6.345000 0.000000 0.000004 0.000003 0.000004
400 1 8.460000 2.115000 6.345000 0.000000 0.000005 0.000004 0.000004
401 1 8.460000 0.000000 8.460000 0.000000 0.000004 0.000003 0.000004
402 1 10.575000 2.115000 8.460000 0.000000 0.000004 0.000003 0.000004
403 1 10.575000 0.000000 10.575000 0.000000 0.000004 0.000003 0.000004
404 1 8.460000 2.115000 10.575000 0.000000 0.000004 0.000003 0.000004
405 1 8.460000 0.000000 12.690000 0.000000 0.000003 0.000003 -0.000003
406 1 10.575000 2.115000 12.690000 0.000000 0.000003 0.000003 -0.000003
407 1 10.575000 0.000000 14.805000 0.000000 0.000003 0.000003 -0.000003
408 1 8.460000 2.115000 14.805000 0.000000 0.000003 0.000003 -0.000003
409 1 8.460000 0.000000 16.920000 0.000000 0.000003 0.000003 -0.000003
410 1 10.575000 2.115000 16.920000 0.000000 0.000003 0.000003 -0.000003
411 1 10.575000 0.000000 19.035000 0.000000 0.000004 0.000003 0.000003
412 1 8.460000 2.115000 19.035000 0.000000 0.000003 0.000003 0.000003
413 1 8.460000 0.000000 21.150000 0.000000 0.000004 0.000003 -0.000004
414 1 10.575000 2.115000 21.150000 0.000000 0.000004 0.000003 -0.000004
415 1 10.575000 0.000000 23.265000 0.000000 0.000004 0.000003 -0.000004
416 1 8.460000 2.115000 23.265000 0.000000 0.000005 0.000004 -0.000004
417 1 8.460000 0.000000 25.380000 0.000000 0.000007 0.000003 -0.000005
418 1 10.575000 2.115000 25.380000 0.000000 0.000005 0.000004 -0.000004
419 1 10.575000 0.000000 27.495000 0.000000 0.000005 0.000003 0.000003