ITEM: TIMESTEP
1
ITEM: NUMBER OF ATOMS
2000
ITEM: BOX BOUNDS pp pp pp
0.000000 10.000000
0.000000 10.000000
0.000000 10.000000
ITEM: ATOMS id type x y z
1 1 0.000000 0.000000 0.000000
2 1 0.500000 0.500000 0.500000
3 1 0.000000 0.000000 1.000000
4 1 0.500000 0.500000 1.500000
5 1 0.000000 0.000000 2.000000
6 1 0.500000 0.500000 2.500000
7 1 0.000000 0.000000 3.000000
8 1 0.500000 0.500000 3.500000
9 1 0.000000 0.000000 4.000000
10 1 0.500000 0.500000 4.500000
11 1 0.000000 0.000000 5.000000
12 1 0.500000 0.500000 5.500000
13 1 0.000000 0.000000 6.000000
14 1 0.500000 0.500000 6.500000
15 1 0.000000 0.000000 7.000000
16 1 0.500000 0.500000 7.500000
17 1 0.000000 0.000000 8.000000
18 1 0.500000 0.500000 8.500000
19 1 0.000000 0.000000 9.000000
20 1 0.500000 0.500000 9.500000
21 1 0.000000 1.000000 0.000000
22 1 0.500000 1.500000 0.500000
23 1 0.000000 1.000000 1.000000
24 1 0.500000 1.500000 1.500000
25 1 0.000000 1.000000 2.000000
26 1 0.500000 1.500000 2.500000
27 1 0.000000 1.000000 3.000000
28 1 0.500000 1.500000 3.500000
29 1 0.000000 1.000000 4.000000
30 1 0.500000 1.500000 4.500000
31 1 0.000000 1.000000 5.000000
32 1 0.500000 1.500000 5.500000
33 1 0.000000 1.000000 6.000000
34 1 0.500000 1.500000 6.500000
35 1 0.000000 1.000000 7.000000
36 1 0.500000 1.500000 7.500000
37 1 0.000000 1.000000 8.000000
38 1 0.500000 1.500000 8.500000
39 1 0.000000 1.000000 9.000000
40 1 0.500000 1.500000 9.500000
41 1 0.000000 2.000000 0.000000
42 1 0.500000 2.500000 0.500000
43 1 0.000000 2.000000 1.000000
44 1 0.500000 2.500000 1.500000
45 1 0.000000 2.000000 2.000000
46 1 0.500000 2.500000 2.500000
47 1 0.000000 2.000000 3.000000
48 1 0.500000 2.500000 3.500000
49 1 0.000000 2.000000 4.000000
50 1 0.500000 2.500000 4.500000
51 1 0.000000 2.000000 5.000000
52 1 0.500000 2.500000 5.500000
53 1 0.000000 2.000000 6.000000
54 1 0.500000 2.500000 6.500000
55 1 0.000000 2.000000 7.000000
56 1 0.500000 2.500000 7.500000
57 1 0.000000 2.000000 8.000000
58 1 0.500000 2.500000 8.500000
59 1 0.000000 2.000000 9.000000
60 1 0.500000 2.500000 9.500000
61 1 0.000000 3.000000 0.000000
62 1 0.500000 3.500000 0.500000
63 1 0.000000 3.000000 1.000000
64 1 0.500000 3.500000 1.500000
65 1 0.000000 3.000000 2.000000
66 1 0.500000 3.500000 2.500000
67 1 0.000000 3.000000 3.000000
68 1 0.500000 3.500000 3.500000
69 1 0.000000 3.000000 4.000000
70 1 0.500000 3.500000 4.500000
71 1 0.000000 3.000000 5.000000
72 1 0.500000 3.500000 5.500000
73 1 0.000000 3.000000 6.000000
74 1 0.500000 3.500000 6.500000
75 1 0.000000 3.000000 7.000000
76 1 0.500000 3.500000 7.500000
77 1 0.000000 3.000000 8.000000
78 1 0.500000 3.500000 8.500000
79 1 0.000000 3.000000 9.000000
80 1 0.500000 3.500000 9.500000
81 1 0.000000 4.000000 0.000000
82 1 0.500000 4.500000 0.500000
83 1 0.000000 4.000000 1.000000
84 1 0.500000 4.500000 1.500000
85 1 0.000000 4.000000 2.000000
86 1 0.500000 4.500000 2.500000
87 1 0.000000 4.000000 3.000000
88 1 0.500000 4.500000 3.500000
89 1 0.000000 4.000000 4.000000
90 1 0.500000 4.500000 4.500000
91 1 0.000000 4.000000 5.000000
92 1 0.500000 4.500000 5.500000
93 1 0.000000 4.000000 6.000000
94 1 0.500000 4.500000 6.500000
95 1 0.000000 4.000000 7.000000
96 1 0.500000 4.500000 7.500000
97 1 0.000000 4.000000 8.000000
98 1 0.500000 4.500000 8.500000
99 1 0.000000 4.000000 9.000000
100 1 0.500000 4.500000 9.500000
101 1 0.000000 5.000000 0.000000
102 1 0.500000 5.500000 0.500000
103 1 0.000000 5.000000 1.000000
104 1 0.500000 5.500000 1.500000
105 1 0.000000 5.000000 2.000000
106 1 0.500000 5.500000 2.500000
107 1 0.000000 5.000000 3.000000
108 1 0.500000 5.500000 3.500000
109 1 0.000000 5.000000 4.000000
110 1 0.500000 5.500000 4.500000
111 1 0.000000 5.000000 5.000000
112 1 0.500000 5.500000 5.500000
113 1 0.000000 5.000000 6.000000
114 1 0.500000 5.500000 6.500000
115 1 0.000000 5.000000 7.000000
116 1 0.500000 5.500000 7.500000
117 1 0.000000 5.000000 8.000000
118 1 0.500000 5.500000 8.500000
119 1 0.000000 5.000000 9.000000
120 1 0.500000 5.500000 9.500000
121 1 0.000000 6.000000 0.000000
122 1 0.500000 6.500000 0.500000
123 1 0.000000 6.000000 1.000000
124 1 0.500000 6.500000 1.500000
125 1 0.000000 6.000000 2.000000
126 1 0.500000 6.500000 2.500000
127 1 0.000000 6.000000 3.000000
128 1 0.500000 6.500000 3.500000
129 1 0.000000 6.000000 4.000000
130 1 0.500000 6.500000 4.500000
131 1 0.000000 6.000000 5.000000
132 1 0.500000 6.500000 5.500000
133 1 0.000000 6.000000 6.000000
134 1 0.500000 6.500000 6.500000
135 1 0.000000 6.000000 7.000000
136 1 0.500000 6.500000 7.500000
137 1 0.000000 6.000000 8.000000
138 1 0.500000 6.500000 8.500000
139 1 0.000000 6.000000 9.000000
140 1 0.500000 6.500000 9.500000
141 1 0.000000 7.000000 0.000000
142 1 0.500000 7.500000 0.500000
143 1 0.000000 7.000000 1.000000
144 1 0.500000 7.500000 1.500000
145 1 0.000000 7.000000 2.000000
146 1 0.500000 7.500000 2.500000
147 1 0.000000 7.000000 3.000000
148 1 0.500000 7.500000 3.500000
149 1 0.000000 7.000000 4.000000
150 1 0.500000 7.500000 4.500000
151 1 0.000000 7.000000 5.000000
152 1 0.500000 7.500000 5.500000
153 1 0.000000 7.000000 6.000000
154 1 0.500000 7.500000 6.500000
155 1 0.000000 7.000000 7.000000
156 1 0.500000 7.500000 7.500000
157 1 0.000000 7.000000 8.000000
158 1 0.500000 7.500000 8.500000
159 1 0.000000 7.000000 9.000000
160 1 0.500000 7.500000 9.500000
161 1 0.000000 8.000000 0.000000
162 1 0.500000 8.500000 0.500000
163 1 0.000000 8.000000 1.000000
164 1 0.500000 8.500000 1.500000
165 1 0.000000 8.000000 2.000000
166 1 0.500000 8.500000 2.500000
167 1 0.000000 8.000000 3.000000
168 1 0.500000 8.500000 3.500000
169 1 0.000000 8.000000 4.000000
170 1 0.500000 8.500000 4.500000
171 1 0.000000 8.000000 5.000000
172 1 0.500000 8.500000 5.500000
173 1 0.000000 8.000000 6.000000
174 1 0.500000 8.500000 6.500000
175 1 0.000000 8.000000 7.000000
176 1 0.500000 8.500000 7.500000
177 1 0.000000 8.000000 8.000000
178 1 0.500000 8.500000 8.500000
179 1 0.000000 8.000000 9.000000
180 1 0.500000 8.500000 9.500000
181 1 0.000000 9.000000 0.000000
182 1 0.500000 9.500000 0.500000
183 1 0.000000 9.000000 1.000000
184 1 0.500000 9.500000 1.500000
185 1 0.000000 9.000000 2.000000
186 1 0.500000 9.500000 2.500000
187 1 0.000000 9.000000 3.000000
188 1 0.500000 9.500000 3.500000
189 1 0.000000 9.000000 4.000000
190 1 0.500000 9.500000 4.500000
191 1 0.000000 9.000000 5.000000
192 1 0.500000 9.500000 5.500000
193 1 0.000000 9.000000 6.000000
194 1 0.500000 9.500000 6.500000
195 1 0.000000 9.000000 7.000000
196 1 0.500000 9.500000 7.500000
197 1 0.000000 9.000000 8.000000
198 1 0.500000 9.500000 8.500000
199 1 0.000000 9.000000 9.000000
200 1 0.500000 9.500000 9.500000
201 1 1.000000 0.000000 0.000000
202 1 1.500000 0.500000 0.500000
203 1 1.000000 0.000000 1.000000
204 1 1.500000 0.500000 1.500000
205 1 1.000000 0.000000 2.000000
206 1 1.500000 0.500000 2.500000
207 1 1.000000 0.000000 3.000000
208 1 1.500000 0.500000 3.500000
209 1 1.000000 0.000000 4.000000
210 1 1.500000 0.500000 4.500000
211 1 1.000000 0.000000 5.000000
212 1 1.500000 0.500000 5.500000
213 1 1.000000 0.000000 6.000000
214 1 1.500000 0.500000 6.500000
215 1 1.000000 0.000000 7.000000
216 1 1.500000 0.500000 7.500000
217 1 1.000000 0.000000 8.000000
218 1 1.500000 0.500000 8.500000
219 1 1.000000 0.000000 9.000000
220 1 1.500000 0.500000 9.500000
221 1 1.000000 1.000000 0.000000
222 1 1.500000 1.500000 0.500000
223 1 1.000000 1.000000 1.000000
224 1 1.500000 1.500000 1.500000
225 1 1.000000 1.000000 2.000000
226 1 1.500000 1.500000 2.500000
227 1 1.000000 1.000000 3.000000
228 1 1.500000 1.500000 3.500000
229 1 1.000000 1.000000 4.000000
230 1 1.500000 1.500000 4.500000
231 1 1.000000 1.000000 5.000000
232 1 1.500000 1.500000 5.500000
233 1 1.000000 1.000000 6.000000
234 1 1.500000 1.500000 6.500000
235 1 1.000000 1.000000 7.000000
236 1 1.500000 1.500000 7.500000
237 1 1.000000 1.000000 8.000000
238 1 1.500000 1.500000 8.500000
239 1 1.000000 1.000000 9.000000
240 1 1.500000 1.500000 9.500000
241 1 1.000000 2.000000 0.000000
242 1 1.500000 2.500000 0.500000
243 1 1.000000 2.000000 1.000000
244 1 1.500000 2.500000 1.500000
245 1 1.000000 2.000000 2.000000
246 1 1.500000 2.500000 2.500000
247 1 1.000000 2.000000 3.000000
248 1 1.500000 2.500000 3.500000
249 1 1.000000 2.000000 4.000000
250 1 1.500000 2.500000 4.500000
251 1 1.000000 2.000000 5.000000
252 1 1.500000 2.500000 5.500000
253 1 1.000000 2.000000 6.000000
254 1 1.500000 2.500000 6.500000
255 1 1.000000 2.000000 7.000000
256 1 1.500000 2.500000 7.500000
257 1 1.000000 2.000000 8.000000
258 1 1.500000 2.500000 8.500000
259 1 1.000000 2.000000 9.000000
260 1 1.500000 2.500000 9.500000
261 1 1.000000 3.000000 0.000000
262 1 1.500000 3.500000 0.500000
263 1 1.000000 3.000000 1.000000
264 1 1.500000 3.500000 1.500000
265 1 1.000000 3.000000 2.000000
266 1 1.500000 3.500000 2.500000
267 1 1.000000 3.000000 3.000000
268 1 1.500000 3.500000 3.500000
269 1 1.000000 3.000000 4.000000
270 1 1.500000 3.500000 4.500000
271 1 1.000000 3.000000 5.000000
272 1 1.500000 3.500000 5.500000
273 1 1.000000 3.000000 6.000000
274 1 1.500000 3.500000 6.500000
275 1 1.000000 3.000000 7.000000
276 1 1.500000 3.500000 7.500000
277 1 1.000000 3.000000 8.000000
278 1 1.500000 3.500000 8.500000
279 1 1.000000 3.000000 9.000000
280 1 1.500000 3.500000 9.500000
281 1 1.000000 4.000000 0.000000
282 1 1.500000 4.500000 0.500000
283 1 1.000000 4.000000 1.000000
284 1 1.500000 4.500000 1.500000
285 1 1.000000 4.000000 2.000000
286 1 1.500000 4.500000 2.500000
287 1 1.000000 4.000000 3.000000
288 1 1.500000 4.500000 3.500000
289 1 1.000000 4.000000 4.000000
290 1 1.500000 4.500000 4.500000
291 1 1.000000 4.000000 5.000000
292 1 1.500000 4.500000 5.500000
293 1 1.000000 4.000000 6.000000
294 1 1.500000 4.500000 6.500000
295 1 1.000000 4.000000 7.000000
296 1 1.500000 4.500000 7.500000
297 1 1.000000 4.000000 8.000000
298 1 1.500000 4.500000 8.500000
299 1 1.000000 4.000000 9.000000
300 1 1.500000 4.500000 9.500000
301 1 1.000000 5.000000 0.000000
302 1 1.500000 5.500000 0.500000
303 1 1.000000 5.000000 1.000000
304 1 1.500000 5.500000 1.500000
305 1 1.000000 5.000000 2.000000
306 1 1.500000 5.500000 2.500000
307 1 1.000000 5.000000 3.000000
308 1 1.500000 5.500000 3.500000
309 1 1.000000 5.000000 4.000000
310 1 1.500000 5.500000 4.500000
311 1 1.000000 5.000000 5.000000
312 1 1.500000 5.500000 5.500000
313 1 1.000000 5.000000 6.000000
314 1 1.500000 5.500000 6.500000
315 1 1.000000 5.000000 7.000000
316 1 1.500000 5.500000 7.500000
317 1 1.000000 5.000000 8.000000
318 1 1.500000 5.500000 8.500000
319 1 1.000000 5.000000 9.000000
320 1 1.500000 5.500000 9.500000
321 1 1.000000 6.000000 0.000000
322 1 1.500000 6.500000 0.500000
323 1 1.000000 6.000000 1.000000
324 1 1.500000 6.500000 1.500000
325 1 1.000000 6.000000 2.000000
326 1 1.500000 6.500000 2.500000
327 1 1.000000 6.000000 3.000000
328 1 1.500000 6.500000 3.500000
329 1 1.000000 6.000000 4.000000
330 1 1.500000 6.500000 4.500000
331 1 1.000000 6.000000 5.000000
332 1 1.500000 6.500000 5.500000
333 1 1.000000 6.000000 6.000000
334 1 1.500000 6.500000 6.500000
335 1 1.000000 6.000000 7.000000
336 1 1.500000 6.500000 7.500000
337 1 1.000000 6.000000 8.000000
338 1 1.500000 6.500000 8.500000
339 1 1.000000 6.000000 9.000000
340 1 1.500000 6.500000 9.500000
341 1 1.000000 7.000000 0.000000
342 1 1.500000 7.500000 0.500000
343 1 1.000000 7.000000 1.000000
344 1 1.500000 7.500000 1.500000
345 1 1.000000 7.000000 2.000000
346 1 1.500000 7.500000 2.500000
347 1 1.000000 7.000000 3.000000
348 1 1.500000 7.500000 3.500000
349 1 1.000000 7.000000 4.000000
350 1 1.500000 7.500000 4.500000
351 1 1.000000 7.000000 5.000000
352 1 1.500000 7.500000 5.500000
353 1 1.000000 7.000000 6.000000
354 1 1.500000 7.500000 6.500000
355 1 1.000000 7.000000 7.000000
356 1 1.500000 7.500000 7.500000
357 1 1.000000 7.000000 8.000000
358 1 1.500000 7.500000 8.500000
359 1 1.000000 7.000000 9.000000
360 1 1.500000 7.500000 9.500000
361 1 1.000000 8.000000 0.000000
362 1 1.500000 8.500000 0.500000
363 1 1.000000 8.000000 1.000000
364 1 1.500000 8.500000 1.500000
365 1 1.000000 8.000000 2.000000
366 1 1.500000 8.500000 2.500000
367 1 1.000000 8.000000 3.000000
368 1 1.500000 8.500000 3.500000
369 1 1.000000 8.000000 4.000000
370 1 1.500000 8.500000 4.500000
371 1 1.000000 8.000000 5.000000
372 1 1.500000 8.500000 5.500000
373 1 1.000000 8.000000 6.000000
374 1 1.500000 8.500000 6.500000
375 1 1.000000 8.000000 7.000000
376 1 1.500000 8.500000 7.500000
377 1 1.000000 8.000000 8.000000
378 1 1.500000 8.500000 8.500000
379 1 1.000000 8.000000 9.000000
380 1 1.500000 8.500000 9.500000
381 1 1.000000 9.000000 0.000000
382 1 1.500000 9.500000 0.500000
383 1 1.000000 9.000000 1.000000
384 1 1.500000 9.500000 1.500000
385 1 1.000000 9.000000 2.000000
386 1 1.500000 9.500000 2.500000
387 1 1.000000 9.000000 3.000000
388 1 1.500000 9.500000 3.500000
389 1 1.000000 9.000000 4.000000
390 1 1.500000 9.500000 4.500000
391 1 1.000000 9.000000 5.000000
392 1 1.500000 9.500000 5.500000
393 1 1.000000 9.000000 6.000000
394 1 1.500000 9.500000 6.500000
395 1 1.000000 9.000000 7.000000
396 1 1.500000 9.500000 7.500000
397 1 1.000000 9.000000 8.000000
398 1 1.500000 9.500000 8.500000
399 1 1.000000 9.000000 9.000000
400 1 1.500000 9.500000 9.500000
401 1 2.000000 0.000000 0.000000
402 1 2.500000 0.500000 0.500000
403 1 2.000000 0.000000 1.000000
404 1 2.500000 0.500000 1.500000
405 1 2.000000 0.000000 2.000000
406 1 2.500000 0.500000 2.500000
407 1 2.000000 0.000000 3.000000
408 1 2.500000 0.500000 3.500000
409 1 2.000000 0.000000 4.000000
410 1 2.500000 0.500000 4.500000
411 1 2.000000 0.000000 5.000000
412 1 2.500000 0.500000 5.500000
413 1 2.000000 0.000000 6.000000
414 1 2.500000 0.500000 6.500000
415 1 2.000000 0.000000 7.000000
416 1 2.500000 0.500000 7.500000
417 1 2.000000 0.000000 8.000000
418 1 2.500000 0.500000 8.500000
419 1 2.000000 0.000000 9.000000
420 1 2.500000 0.500000 9.500000
421 1 2.000000 1.000000 0.000000
422 1 2.500000 1.500000 0.500000
423 1 2.000000 1.000000 1.000000
424 1 2.500000 1.500000 1.500000
425 1 2.000000 1.000000 2.000000
426 1 2.500000 1.500000 2.500000
427 1 2.000000 1.000000 3.000000
428 1 2.500000 1.500000 3.500000
429 1 2.000000 1.000000 4.000000
430 1 2.500000 1.500000 4.500000
431 1 2.000000 1.000000 5.000000
432 1 2.500000 1.500000 5.500000
433 1 2.000000 1.000000 6.000000
434 1 2.500000 1.500000 6.500000
435 1 2.000000 1.000000 7.000000
436 1 2.500000 1.500000 7.500000
437 1 2.000000 1.000000 8.000000
438 1 2.500000 1.500000 8.500000
439 1 2.000000 1.000000 9.000000
440 1 2.500000 1.500000 9.500000
441 1 2.000000 2.000000 0.000000
442 1 2.500000 2.500000 0.500000
443 1 2.000000 2.000000 1.000000
444 1 2.500000 2.500000 1.500000
445 1 2.000000 2.000000 2.000000
446 1 2.500000 2.500000 2.500000
447 1 2.000000 2.000000 3.000000
448 1 2.500000 2.500000 3.500000
449 1 2.000000 2.000000 4.000000
450 1 2.500000 2.500000 4.500000
451 1 2.000000 2.000000 5.000000
452 1 2.500000 2.500000 5.500000
453 1 2.000000 2.000000 6.000000
454 1 2.500000 2.500000 6.500000
455 1 2.000000 2.000000 7.000000
456 1 2.500000 2.500000 7.500000
457 1 2.000000 2.000000 8.000000
458 1 2.500000 2.500000 8.500000
459 1 2.000000 2.000000 9.000000
460 1 2.500000 2.500000 9.500000
461 1 2.000000 3.000000 0.000000
462 1 2.500000 3.500000 0.500000
463 1 2.000000 3.000000 1.000000
464 1 2.500000 3.500000 1.500000
465 1 2.000000 3.000000 2.000000
466 1 2.500000 3.500000 2.500000
467 1 2.000000 3.000000 3.000000
468 1 2.500000 3.500000 3.500000
469 1 2.000000 3.000000 4.000000
470 1 2.500000 3.500000 4.500000
471 1 2.000000 3.000000 5.000000
472 1 2.500000 3.500000 5.500000
473 1 2.000000 3.000000 6.000000
474 1 2.500000 3.500000 6.500000
475 1 2.000000 3.000000 7.000000
476 1 2.500000 3.500000 7.500000
477 1 2.000000 3.000000 8.000000
478 1 2.500000 3.500000 8.500000
479 1 2.000000 3.000000 9.000000
480 1 2.500000 3.500000 9.500000
481 1 2.000000 4.000000 0.000000
482 1 2.500000 4.500000 0.500000
483 1 2.000000 4.000000 1.000000
484 1 2.500000 4.500000 1.500000
485 1 2.000000 4.000000 2.000000
486 1 2.500000 4.500000 2.500000
487 1 2.000000 4.000000 3.000000
488 1 2.500000 4.500000 3.500000
489 1 2.000000 4.000000 4.000000
490 1 2.500000 4.500000 4.500000
491 1 2.000000 4.000000 5.000000
492 1 2.500000 4.500000 5.500000
493 1 2.000000 4.000000 6.000000
494 1 2.500000 4.500000 6.500000
495 1 2.000000 4.000000 7.000000
496 1 2.500000 4.500000 7.500000
497 1 2.000000 4.000000 8.000000
498 1 2.500000 4.500000 8.500000
499 1 2.000000 4.000000 9.000000
500 1 2.500000 4.500000 9.500000
501 1 2.000000 5.000000 0.000000
502 1 2.500000 5.500000 0.500000
503 1 2.000000 5.000000 1.000000
504 1 2.500000 5.500000 1.500000
505 1 2.000000 5.000000 2.000000
506 1 2.500000 5.500000 2.500000
507 1 2.000000 5.000000 3.000000
508 1 2.500000 5.500000 3.500000
509 1 2.000000 5.000000 4.000000
510 1 2.500000 5.500000 4.500000
511 1 2.000000 5.000000 5.000000
512 1 2.500000 5.500000 5.500000
513 1 2.000000 5.000000 6.000000
514 1 2.500000 5.500000 6.500000
515 1 2.000000 5.000000 7.000000
516 1 2.500000 5.500000 7.500000
517 1 2.000000 5.000000 8.000000
518 1 2.500000 5.500000 8.500000
519 1 2.000000 5.000000 9.000000
520 1 2.500000 5.500000 9.500000
521 1 2.000000 6.000000 0.000000
522 1 2.500000 6.500000 0.500000
523 1 2.000000 6.000000 1.000000
524 1 2.500000 6.500000 1.500000
525 1 2.000000 6.000000 2.000000
526 1 2.500000 6.500000 2.500000
527 1 2.000000 6.000000 3.000000
528 1 2.500000 6.500000 3.500000
529 1 2.000000 6.000000 4.000000
530 1 2.500000 6.500000 4.500000
531 1 2.000000 6.000000 5.000000
532 1 2.500000 6.500000 5.500000
533 1 2.000000 6.000000 6.000000
534 1 2.500000 6.500000 6.500000
535 1 2.000000 6.000000 7.000000
536 1 2.500000 6.500000 7.500000
537 1 2.000000 6.000000 8.000000
538 1 2.500000 6.500000 8.500000
539 1 2.000000 6.000000 9.000000
540 1 2.500000 6.500000 9.500000
541 1 2.000000 7.000000 0.000000
542 1 2.500000 7.500000 0.500000
543 1 2.000000 7.000000 1.000000
544 1 2.500000 7.500000 1.500000
545 1 2.000000 7.000000 2.000000
546 1 2.500000 7.500000 2.500000
547 1 2.000000 7.000000 3.000000
548 1 2.500000 7.500000 3.500000
549 1 2.000000 7.000000 4.000000
550 1 2.500000 7.500000 4.500000
551 1 2.000000 7.000000 5.000000
552 1 2.500000 7.500000 5.500000
553 1 2.000000 7.000000 6.000000
554 1 2.500000 7.500000 6.500000
555 1 2.000000 7.000000 7.000000
556 1 2.500000 7.500000 7.500000
557 1 2.000000 7.000000 8.000000
558 1 2.500000 7.500000 8.500000
559 1 2.000000 7.000000 9.000000
560 1 2.500000 7.500000 9.500000
561 1 2.000000 8.000000 0.000000
562 1 2.500000 8.500000 0.500000
563 1 2.000000 8.000000 1.000000
564 1 2.500000 8.500000 1.500000
565 1 2.000000 8.000000 2.000000
566 1 2.500000 8.500000 2.500000
567 1 2.000000 8.000000 3.000000
568 1 2.500000 8.500000 3.500000
569 1 2.000000 8.000000 4.000000
570 1 2.500000 8.500000 4.500000
571 1 2.000000 8.000000 5.000000
572 1 2.500000 8.500000 5.500000
573 1 2.000000 8.000000 6.000000
574 1 2.500000 8.500000 6.500000
575 1 2.000000 8.000000 7.000000
576 1 2.500000 8.500000 7.500000
577 1 2.000000 8.000000 8.000000
578 1 2.500000 8.500000 8.500000
579 1 2.000000 8.000000 9.000000
580 1 2.500000 8.500000 9.500000
581 1 2.000000 9.000000 0.000000
582 1 2.500000 9.500000 0.500000
583 1 2.000000 9.000000 1.000000
584 1 2.500000 9.500000 1.500000
585 1 2.000000 9.000000 2.000000
586 1 2.500000 9.500000 2.500000
587 1 2.000000 9.000000 3.000000
588 1 2.500000 9.500000 3.500000
589 1 2.000000 9.000000 4.000000
590 1 2.500000 9.500000 4.500000
591 1 2.000000 9.000000 5.000000
592 1 2.500000 9.500000 5.500000
593 1 2.000000 9.000000 6.000000
594 1 2.500000 9.500000 6.500000
595 1 2.000000 9.000000 7.000000
596 1 2.500000 9.500000 7.500000
597 1 2.000000 9.000000 8.000000
598 1 2.500000 9.500000 8.500000
599 1 2.000000 9.000000 9.000000
600 1 2.500000 9.500000 9.500000
601 1 3.000000 0.000000 0.000000
602 1 3.500000 0.500000 0.500000
603 1 3.000000 0.000000 1.000000
604 1 3.500000 0.500000 1.500000
605 1 3.000000 0.000000 2.000000
606 1 3.500000 0.500000 2.500000
607 1 3.000000 0.000000 3.000000
608 1 3.500000 0.500000 3.500000
609 1 3.000000 0.000000 4.000000
610 1 3.500000 0.500000 4.500000
611 1 3.000000 0.000000 5.000000
612 1 3.500000 0.500000 5.500000
613 1 3.000000 0.000000 6.000000
614 1 3.500000 0.500000 6.500000
615 1 3.000000 0.000000 7.000000
616 1 3.500000 0.500000 7.500000
617 1 3.000000 0.000000 8.000000
618 1 3.500000 0.500000 8.500000
619 1 3.000000 0.000000 9.000000
620 1 3.500000 0.500000 9.500000
621 1 3.000000 1.000000 0.000000
622 1 3.500000 1.500000 0.500000
623 1 3.000000 1.000000 1.000000
624 1 3.500000 1.500000 1.500000
625 1 3.000000 1.000000 2.000000
626 1 3.500000 1.500000 2.500000
627 1 3.000000 1.000000 3.000000
628 1 3.500000 1.500000 3.500000
629 1 3.000000 1.000000 4.000000
630 1 3.500000 1.500000 4.500000
631 1 3.000000 1.000000 5.000000
632 1 3.500000 1.500000 5.500000
633 1 3.000000 1.000000 6.000000
634 1 3.500000 1.500000 6.500000
635 1 3.000000 1.000000 7.000000
636 1 3.500000 1.500000 7.500000
637 1 3.000000 1.000000 8.000000
638 1 3.500000 1.500000 8.500000
639 1 3.000000 1.000000 9.000000
640 1 3.500000 1.500000 9.500000
641 1 3.000000 2.000000 0.000000
642 1 3.500000 2.500000 0.500000
643 1 3.000000 2.000000 1.000000
644 1 3.500000 2.500000 1.500000
645 1 3.000000 2.000000 2.000000
646 1 3.500000 2.500000 2.500000
647 1 3.000000 2.000000 3.000000
648 1 3.500000 2.500000 3.500000
649 1 3.000000 2.000000 4.000000
650 1 3.500000 2.500000 4.500000
651 1 3.000000 2.000000 5.000000
652 1 3.500000 2.500000 5.500000
653 1 3.000000 2.000000 6.000000
654 1 3.500000 2.500000 6.500000
655 1 3.000000 2.000000 7.000000
656 1 3.500000 2.500000 7.500000
657 1 3.000000 2.000000 8.000000
658 1 3.500000 2.500000 8.500000
659 1 3.000000 2.000000 9.000000
660 1 3.500000 2.500000 9.500000
661 1 3.000000 3.000000 0.000000
662 1 3.500000 3.500000 0.500000
663 1 3.000000 3.000000 1.000000
664 1 3.500000 3.500000 1.500000
665 1 3.000000 3.000000 2.000000
666 1 3.500000 3.500000 2.500000
667 1 3.000000 3.000000 3.000000
668 1 3.500000 3.500000 3.500000
669 1 3.000000 3.000000 4.000000
670 1 3.500000 3.500000 4.500000
671 1 3.000000 3.000000 5.000000
672 1 3.500000 3.500000 5.500000
673 1 3.000000 3.000000 6.000000
674 1 3.500000 3.500000 6.500000
675 1 3.000000 3.000000 7.000000
676 1 3.500000 3.500000 7.500000
677 1 3.000000 3.000000 8.000000
678 1 3.500000 3.500000 8.500000
679 1 3.000000 3.000000 9.000000
680 1 3.500000 3.500000 9.500000
681 1 3.000000 4.000000 0.000000
682 1 3.500000 4.500000 0.500000
683 1 3.000000 4.000000 1.000000
684 1 3.500000 4.500000 1.500000
685 1 3.000000 4.000000 2.000000
686 1 3.500000 4.500000 2.500000
687 1 3.000000 4.000000 3.000000
688 1 3.500000 4.500000 3.500000
689 1 3.000000 4.000000 4.000000
690 1 3.500000 4.500000 4.500000
691 1 3.000000 4.000000 5.000000
692 1 3.500000 4.500000 5.500000
693 1 3.000000 4.000000 6.000000
694 1 3.500000 4.500000 6.500000
695 1 3.000000 4.000000 7.000000
696 1 3.500000 4.500000 7.500000
697 1 3.000000 4.000000 8.000000
698 1 3.500000 4.500000 8.500000
699 1 3.000000 4.000000 9.000000
700 1 3.500000 4.500000 9.500000
701 1 3.000000 5.000000 0.000000
702 1 3.500000 5.500000 0.500000
703 1 3.000000 5.000000 1.000000
704 1 3.500000 5.500000 1.500000
705 1 3.000000 5.000000 2.000000
706 1 3.500000 5.500000 2.500000
707 1 3.000000 5.000000 3.000000
708 1 3.500000 5.500000 3.500000
709 1 3.000000 5.000000 4.000000
710 1 3.500000 5.500000 4.500000
711 1 3.000000 5.000000 5.000000
712 1 3.500000 5.500000 5.500000
713 1 3.000000 5.000000 6.000000
714 1 3.500000 5.500000 6.500000
715 1 3.000000 5.000000 7.000000
716 1 3.500000 5.500000 7.500000
717 1 3.000000 5.000000 8.000000
718 1 3.500000 5.500000 8.500000
719 1 3.000000 5.000000 9.000000
720 1 3.500000 5.500000 9.500000
721 1 3.000000 6.000000 0.000000
722 1 3.500000 6.500000 0.500000
723 1 3.000000 6.000000 1.000000
724 1 3.500000 6.500000 1.500000
725 1 3.000000 6.000000 2.000000
726 1 3.500000 6.500000 2.500000
727 1 3.000000 6.000000 3.000000
728 1 3.500000 6.500000 3.500000
729 1 3.000000 6.000000 4.000000
730 1 3.500000 6.500000 4.500000
731 1 3.000000 6.000000 5.000000
732 1 3.500000 6.500000 5.500000
733 1 3.000000 6.000000 6.000000
734 1 3.500000 6.500000 6.500000
735 1 3.000000 6.000000 7.000000
736 1 3.500000 6.500000 7.500000
737 1 3.000000 6.000000 8.000000
738 1 3.500000 6.500000 8.500000
739 1 3.000000 6.000000 9.000000
740 1 3.500000 6.500000 9.500000
741 1 3.000000 7.000000 0.000000
742 1 3.500000 7.500000 0.500000
743 1 3.000000 7.000000 1.000000
744 1 3.500000 7.500000 1.500000
745 1 3.000000 7.000000 2.000000
746 1 3.500000 7.500000 2.500000
747 1 3.000000 7.000000 3.000000
748 1 3.500000 7.500000 3.500000
749 1 3.000000 7.000000 4.000000
750 1 3.500000 7.500000 4.500000
751 1 3.000000 7.000000 5.000000
752 1 3.500000 7.500000 5.500000
753 1 3.000000 7.000000 6.000000
754 1 3.500000 7.500000 6.500000
755 1 3.000000 7.000000 7.000000
756 1 3.500000 7.500000 7.500000
757 1 3.000000 7.000000 8.000000
758 1 3.500000 7.500000 8.500000
759 1 3.000000 7.000000 9.000000
760 1 3.500000 7.500000 9.500000
761 1 3.000000 8.000000 0.000000
762 1 3.500000 8.500000 0.500000
763 1 3.000000 8.000000 1.000000
764 1 3.500000 8.500000 1.500000
765 1 3.000000 8.000000 2.000000
766 1 3.500000 8.500000 2.500000
767 1 3.000000 8.000000 3.000000
768 1 3.500000 8.500000 3.500000
769 1 3.000000 8.000000 4.000000
770 1 3.500000 8.500000 4.500000
771 1 3.000000 8.000000 5.000000
772 1 3.500000 8.500000 5.500000
773 1 3.000000 8.000000 6.000000
774 1 3.500000 8.500000 6.500000
775 1 3.000000 8.000000 7.000000
776 1 3.500000 8.500000 7.500000
777 1 3.000000 8.000000 8.000000
778 1 3.500000 8.500000 8.500000
779 1 3.000000 8.000000 9.000000
780 1 3.500000 8.500000 9.500000
781 1 3.000000 9.000000 0.000000
782 1 3.500000 9.500000 0.500000
783 1 3.000000 9.000000 1.000000
784 1 3.500000 9.500000 1.500000
785 1 3.000000 9.000000 2.000000
786 1 3.500000 9.500000 2.500000
787 1 3.000000 9.000000 3.000000
788 1 3.500000 9.500000 3.500000
789 1 3.000000 9.000000 4.000000
790 1 3.500000 9.500000 4.500000
791 1 3.000000 9.000000 5.000000
792 1 3.500000 9.500000 5.500000
793 1 3.000000 9.000000 6.000000
794 1 3.500000 9.500000 6.500000
795 1 3.000000 9.000000 7.000000
796 1 3.500000 9.500000 7.500000
797 1 3.000000 9.000000 8.000000
798 1 3.500000 9.500000 8.500000
799 1 3.000000 9.000000 9.000000
800 1 3.500000 9.500000 9.500000
801 1 4.000000 0.000000 0.000000
802 1 4.500000 0.500000 0.500000
803 1 4.000000 0.000000 1.000000
804 1 4.500000 0.500000 1.500000
805 1 4.000000 0.000000 2.000000
806 1 4.500000 0.500000 2.500000
807 1 4.000000 0.000000 3.000000
808 1 4.500000 0.500000 3.500000
809 1 4.000000 0.000000 4.000000
810 1 4.500000 0.500000 4.500000
811 1 4.000000 0.000000 5.000000
812 1 4.500000 0.500000 5.500000
813 1 4.000000 0.000000 6.000000
814 1 4.500000 0.500000 6.500000
815 1 4.000000 0.000000 7.000000
816 1 4.500000 0.500000 7.500000
817 1 4.000000 0.000000 8.000000
818 1 4.500000 0.500000 8.500000
819 1 4.000000 0.000000 9.000000
820 1 4.500000 0.500000 9.500000
821 1 4.000000 1.000000 0.000000
822 1 4.500000 1.500000 0.500000
823 1 4.000000 1.000000 1.000000
824 1 4.500000 1.500000 1.500000
825 1 4.000000 1.000000 2.000000
826 1 4.500000 1.500000 2.500000
827 1 4.000000 1.000000 3.000000
828 1 4.500000 1.500000 3.500000
829 1 4.000000 1.000000 4.000000
830 1 4.500000 1.500000 4.500000
831 1 4.000000 1.000000 5.000000
832 1 4.500000 1.500000 5.500000
833 1 4.000000 1.000000 6.000000
834 1 4.500000 1.500000 6.500000
835 1 4.000000 1.000000 7.000000
836 1 4.500000 1.500000 7.500000
837 1 4.000000 1.000000 8.000000
838 1 4.500000 1.500000 8.500000
839 1 4.000000 1.000000 9.000000
840 1 4.500000 1.500000 9.500000
841 1 4.000000 2.000000 0.000000
842 1 4.500000 2.500000 0.500000
843 1 4.000000 2.000000 1.000000
844 1 4.500000 2.500000 1.500000
845 1 4.000000 2.000000 2.000000
846 1 4.500000 2.500000 2.500000
847 1 4.000000 2.000000 3.000000
848 1 4.500000 2.500000 3.500000
849 1 4.000000 2.000000 4.000000
850 1 4.500000 2.500000 4.500000
851 1 4.000000 2.000000 5.000000
852 1 4.500000 2.500000 5.500000
853 1 4.000000 2.000000 6.000000
854 1 4.500000 2.500000 6.500000
855 1 4.000000 2.000000 7.000000
856 1 4.500000 2.500000 7.500000
857 1 4.000000 2.000000 8.000000
858 1 4.500000 2.500000 8.500000
859 1 4.000000 2.000000 9.000000
860 1 4.500000 2.500000 9.500000
861 1 4.000000 3.000000 0.000000
862 1 4.500000 3.500000 0.500000
863 1 4.000000 3.000000 1.000000
864 1 4.500000 3.500000 1.500000
865 1 4.000000 3.000000 2.000000
866 1 4.500000 3.500000 2.500000
867 1 4.000000 3.000000 3.000000
868 1 4.500000 3.500000 3.500000
869 1 4.000000 3.000000 4.000000
870 1 4.500000 3.500000 4.500000
871 1 4.000000 3.000000 5.000000
872 1 4.500000 3.500000 5.500000
873 1 4.000000 3.000000 6.000000
874 1 4.500000 3.500000 6.500000
875 1 4.000000 3.000000 7.000000
876 1 4.500000 3.500000 7.500000
877 1 4.000000 3.000000 8.000000
878 1 4.500000 3.500000 8.500000
879 1 4.000000 3.000000 9.000000
880 1 4.500000 3.500000 9.500000
881 1 4.000000 4.000000 0.000000
882 1 4.500000 4.500000 0.500000
883 1 4.000000 4.000000 1.000000
884 1 4.500000 4.500000 1.500000
885 1 4.000000 4.000000 2.000000
886 1 4.500000 4.500000 2.500000
887 1 4.000000 4.000000 3.000000
888 1 4.500000 4.500000 3.500000
889 1 4.000000 4.000000 4.000000
890 1 4.500000 4.500000 4.500000
891 1 4.000000 4.000000 5.000000
892 1 4.500000 4.500000 5.500000
893 1 4.000000 4.000000 6.000000
894 1 4.500000 4.500000 6.500000
895 1 4.000000 4.000000 7.000000
896 1 4.500000 4.500000 7.500000
897 1 4.000000 4.000000 8.000000
898 1 4.500000 4.500000 8.500000
899 1 4.000000 4.000000 9.000000
900 1 4.500000 4.500000 9.500000
901 1 4.000000 5.000000 0.000000
902 1 4.500000 5.500000 0.500000
903 1 4.000000 5.000000 1.000000
904 1 4.500000 5.500000 1.500000
905 1 4.000000 5.000000 2.000000
906 1 4.500000 5.500000 2.500000
907 1 4.000000 5.000000 3.000000