ITEM: TIMESTEP
1
ITEM: NUMBER OF ATOMS
1100
ITEM: BOX BOUNDS pp pp pp
0.000000 31.400000
0.000000 31.400000
0.000000 31.400000
ITEM: ATOMS id type x y z pe fx fy fz
1 1 0.000000 0.000000 0.000000 -7.379118 0.000000 0.000000 0.392736
2 1 1.570000 1.570000 1.570000 -8.709288 0.000000 0.000000 0.036036
3 1 0.000000 0.000000 3.140000 -8.921100 0.000000 0.000000 -0.423564
4 1 1.570000 1.570000 4.710000 -8.899980 0.000000 0.000000 -0.005206
5 1 0.000000 0.000000 6.280000 -8.899980 -0.000000 -0.000000 0.000000
6 1 1.570000 1.570000 7.850000 -8.899980 0.000000 0.000000 0.000000
7 1 0.000000 0.000000 9.420000 -8.899980 -0.000000 -0.000000 -0.000000
8 1 1.570000 1.570000 10.990000 -8.899980 0.000000 0.000000 0.005206
9 1 0.000000 0.000000 12.560000 -8.921100 0.000000 -0.000000 0.423564
10 1 1.570000 1.570000 14.130000 -8.709288 0.000000 0.000000 -0.036036
11 1 0.000000 0.000000 15.700000 -7.379118 0.000000 0.000000 -0.392736
21 1 0.000000 3.140000 0.000000 -7.379118 0.000000 -0.000000 0.392736
22 1 1.570000 4.710000 1.570000 -8.709288 0.000000 -0.000000 0.036036
23 1 0.000000 3.140000 3.140000 -8.921100 0.000000 0.000000 -0.423564
24 1 1.570000 4.710000 4.710000 -8.899980 0.000000 -0.000000 -0.005206
25 1 0.000000 3.140000 6.280000 -8.899980 -0.000000 0.000000 0.000000
26 1 1.570000 4.710000 7.850000 -8.899980 0.000000 -0.000000 0.000000
27 1 0.000000 3.140000 9.420000 -8.899980 0.000000 0.000000 -0.000000
28 1 1.570000 4.710000 10.990000 -8.899980 0.000000 -0.000000 0.005206
29 1 0.000000 3.140000 12.560000 -8.921100 0.000000 0.000000 0.423564
30 1 1.570000 4.710000 14.130000 -8.709288 0.000000 -0.000000 -0.036036
31 1 0.000000 3.140000 15.700000 -7.379118 0.000000 -0.000000 -0.392736
41 1 0.000000 6.280000 0.000000 -7.379118 0.000000 0.000000 0.392736
42 1 1.570000 7.850000 1.570000 -8.709288 0.000000 0.000000 0.036036
43 1 0.000000 6.280000 3.140000 -8.921100 -0.000000 0.000000 -0.423564
44 1 1.570000 7.850000 4.710000 -8.899980 0.000000 0.000000 -0.005206
45 1 0.000000 6.280000 6.280000 -8.899980 -0.000000 0.000000 0.000000
46 1 1.570000 7.850000 7.850000 -8.899980 0.000000 0.000000 0.000000
47 1 0.000000 6.280000 9.420000 -8.899980 -0.000000 0.000000 -0.000000
48 1 1.570000 7.850000 10.990000 -8.899980 0.000000 0.000000 0.005206
49 1 0.000000 6.280000 12.560000 -8.921100 -0.000000 0.000000 0.423564
50 1 1.570000 7.850000 14.130000 -8.709288 0.000000 0.000000 -0.036036
51 1 0.000000 6.280000 15.700000 -7.379118 0.000000 0.000000 -0.392736
61 1 0.000000 9.420000 0.000000 -7.379118 0.000000 -0.000000 0.392736
62 1 1.570000 10.990000 1.570000 -8.709288 0.000000 -0.000000 0.036036
63 1 0.000000 9.420000 3.140000 -8.921100 0.000000 -0.000000 -0.423564
64 1 1.570000 10.990000 4.710000 -8.899980 0.000000 -0.000000 -0.005206
65 1 0.000000 9.420000 6.280000 -8.899980 -0.000000 -0.000000 0.000000
66 1 1.570000 10.990000 7.850000 -8.899980 0.000000 -0.000000 0.000000
67 1 0.000000 9.420000 9.420000 -8.899980 -0.000000 -0.000000 -0.000000
68 1 1.570000 10.990000 10.990000 -8.899980 0.000000 -0.000000 0.005206
69 1 0.000000 9.420000 12.560000 -8.921100 -0.000000 -0.000000 0.423564
70 1 1.570000 10.990000 14.130000 -8.709288 0.000000 -0.000000 -0.036036
71 1 0.000000 9.420000 15.700000 -7.379118 -0.000000 -0.000000 -0.392736
81 1 0.000000 12.560000 0.000000 -7.379118 0.000000 -0.000000 0.392736
82 1 1.570000 14.130000 1.570000 -8.709288 0.000000 -0.000000 0.036036
83 1 0.000000 12.560000 3.140000 -8.921100 0.000000 -0.000000 -0.423564
84 1 1.570000 14.130000 4.710000 -8.899980 0.000000 -0.000000 -0.005206
85 1 0.000000 12.560000 6.280000 -8.899980 -0.000000 -0.000000 0.000000
86 1 1.570000 14.130000 7.850000 -8.899980 0.000000 -0.000000 0.000000
87 1 0.000000 12.560000 9.420000 -8.899980 -0.000000 -0.000000 -0.000000
88 1 1.570000 14.130000 10.990000 -8.899980 0.000000 -0.000000 0.005206
89 1 0.000000 12.560000 12.560000 -8.921100 -0.000000 -0.000000 0.423564
90 1 1.570000 14.130000 14.130000 -8.709288 0.000000 -0.000000 -0.036036
91 1 0.000000 12.560000 15.700000 -7.379118 0.000000 -0.000000 -0.392736
101 1 0.000000 15.700000 0.000000 -7.379118 0.000000 0.000000 0.392736
102 1 1.570000 17.270000 1.570000 -8.709288 0.000000 -0.000000 0.036036
103 1 0.000000 15.700000 3.140000 -8.921100 0.000000 0.000000 -0.423564
104 1 1.570000 17.270000 4.710000 -8.899980 0.000000 -0.000000 -0.005206
105 1 0.000000 15.700000 6.280000 -8.899980 -0.000000 -0.000000 0.000000
106 1 1.570000 17.270000 7.850000 -8.899980 0.000000 -0.000000 0.000000
107 1 0.000000 15.700000 9.420000 -8.899980 -0.000000 0.000000 -0.000000
108 1 1.570000 17.270000 10.990000 -8.899980 0.000000 0.000000 0.005206
109 1 0.000000 15.700000 12.560000 -8.921100 -0.000000 -0.000000 0.423564
110 1 1.570000 17.270000 14.130000 -8.709288 0.000000 0.000000 -0.036036
111 1 0.000000 15.700000 15.700000 -7.379118 0.000000 0.000000 -0.392736
121 1 0.000000 18.840000 0.000000 -7.379118 0.000000 -0.000000 0.392736
122 1 1.570000 20.410000 1.570000 -8.709288 0.000000 0.000000 0.036036
123 1 0.000000 18.840000 3.140000 -8.921100 0.000000 0.000000 -0.423564
124 1 1.570000 20.410000 4.710000 -8.899980 0.000000 0.000000 -0.005206
125 1 0.000000 18.840000 6.280000 -8.899980 -0.000000 0.000000 0.000000
126 1 1.570000 20.410000 7.850000 -8.899980 0.000000 0.000000 0.000000
127 1 0.000000 18.840000 9.420000 -8.899980 -0.000000 0.000000 -0.000000
128 1 1.570000 20.410000 10.990000 -8.899980 0.000000 0.000000 0.005206
129 1 0.000000 18.840000 12.560000 -8.921100 -0.000000 0.000000 0.423564
130 1 1.570000 20.410000 14.130000 -8.709288 0.000000 0.000000 -0.036036
131 1 0.000000 18.840000 15.700000 -7.379118 -0.000000 -0.000000 -0.392736
141 1 0.000000 21.980000 0.000000 -7.379118 0.000000 0.000000 0.392736
142 1 1.570000 23.550000 1.570000 -8.709288 0.000000 0.000000 0.036036
143 1 0.000000 21.980000 3.140000 -8.921100 0.000000 0.000000 -0.423564
144 1 1.570000 23.550000 4.710000 -8.899980 0.000000 0.000000 -0.005206
145 1 0.000000 21.980000 6.280000 -8.899980 -0.000000 0.000000 0.000000
146 1 1.570000 23.550000 7.850000 -8.899980 0.000000 0.000000 0.000000
147 1 0.000000 21.980000 9.420000 -8.899980 -0.000000 0.000000 -0.000000
148 1 1.570000 23.550000 10.990000 -8.899980 0.000000 0.000000 0.005206
149 1 0.000000 21.980000 12.560000 -8.921100 -0.000000 0.000000 0.423564
150 1 1.570000 23.550000 14.130000 -8.709288 0.000000 0.000000 -0.036036
151 1 0.000000 21.980000 15.700000 -7.379118 0.000000 0.000000 -0.392736
161 1 0.000000 25.120000 0.000000 -7.379118 0.000000 0.000000 0.392736
162 1 1.570000 26.690000 1.570000 -8.709288 0.000000 0.000000 0.036036
163 1 0.000000 25.120000 3.140000 -8.921100 0.000000 -0.000000 -0.423564
164 1 1.570000 26.690000 4.710000 -8.899980 0.000000 0.000000 -0.005206
165 1 0.000000 25.120000 6.280000 -8.899980 -0.000000 -0.000000 0.000000
166 1 1.570000 26.690000 7.850000 -8.899980 0.000000 0.000000 0.000000
167 1 0.000000 25.120000 9.420000 -8.899980 -0.000000 0.000000 -0.000000
168 1 1.570000 26.690000 10.990000 -8.899980 0.000000 0.000000 0.005206
169 1 0.000000 25.120000 12.560000 -8.921100 -0.000000 0.000000 0.423564
170 1 1.570000 26.690000 14.130000 -8.709288 0.000000 -0.000000 -0.036036
171 1 0.000000 25.120000 15.700000 -7.379118 0.000000 -0.000000 -0.392736
181 1 0.000000 28.260000 0.000000 -7.379118 0.000000 -0.000000 0.392736
182 1 1.570000 29.830000 1.570000 -8.709288 0.000000 -0.000000 0.036036
183 1 0.000000 28.260000 3.140000 -8.921100 0.000000 0.000000 -0.423564
184 1 1.570000 29.830000 4.710000 -8.899980 0.000000 -0.000000 -0.005206
185 1 0.000000 28.260000 6.280000 -8.899980 -0.000000 0.000000 0.000000
186 1 1.570000 29.830000 7.850000 -8.899980 0.000000 -0.000000 0.000000
187 1 0.000000 28.260000 9.420000 -8.899980 -0.000000 0.000000 -0.000000
188 1 1.570000 29.830000 10.990000 -8.899980 0.000000 -0.000000 0.005206
189 1 0.000000 28.260000 12.560000 -8.921100 -0.000000 0.000000 0.423564
190 1 1.570000 29.830000 14.130000 -8.709288 0.000000 0.000000 -0.036036
191 1 0.000000 28.260000 15.700000 -7.379118 0.000000 0.000000 -0.392736
201 1 3.140000 0.000000 0.000000 -7.379118 -0.000000 0.000000 0.392736
202 1 4.710000 1.570000 1.570000 -8.709288 -0.000000 0.000000 0.036036
203 1 3.140000 0.000000 3.140000 -8.921100 -0.000000 0.000000 -0.423564
204 1 4.710000 1.570000 4.710000 -8.899980 -0.000000 0.000000 -0.005206
205 1 3.140000 0.000000 6.280000 -8.899980 0.000000 0.000000 0.000000
206 1 4.710000 1.570000 7.850000 -8.899980 -0.000000 0.000000 0.000000
207 1 3.140000 0.000000 9.420000 -8.899980 0.000000 -0.000000 -0.000000
208 1 4.710000 1.570000 10.990000 -8.899980 -0.000000 0.000000 0.005206
209 1 3.140000 0.000000 12.560000 -8.921100 -0.000000 0.000000 0.423564
210 1 4.710000 1.570000 14.130000 -8.709288 -0.000000 0.000000 -0.036036
211 1 3.140000 0.000000 15.700000 -7.379118 0.000000 0.000000 -0.392736
221 1 3.140000 3.140000 0.000000 -7.379118 0.000000 0.000000 0.392736
222 1 4.710000 4.710000 1.570000 -8.709288 -0.000000 -0.000000 0.036036
223 1 3.140000 3.140000 3.140000 -8.921100 -0.000000 -0.000000 -0.423564
224 1 4.710000 4.710000 4.710000 -8.899980 -0.000000 -0.000000 -0.005206
225 1 3.140000 3.140000 6.280000 -8.899980 -0.000000 0.000000 0.000000
226 1 4.710000 4.710000 7.850000 -8.899980 -0.000000 -0.000000 0.000000
227 1 3.140000 3.140000 9.420000 -8.899980 0.000000 0.000000 -0.000000
228 1 4.710000 4.710000 10.990000 -8.899980 -0.000000 -0.000000 0.005206
229 1 3.140000 3.140000 12.560000 -8.921100 -0.000000 0.000000 0.423564
230 1 4.710000 4.710000 14.130000 -8.709288 -0.000000 -0.000000 -0.036036
231 1 3.140000 3.140000 15.700000 -7.379118 -0.000000 0.000000 -0.392736
241 1 3.140000 6.280000 0.000000 -7.379118 -0.000000 0.000000 0.392736
242 1 4.710000 7.850000 1.570000 -8.709288 -0.000000 0.000000 0.036036
243 1 3.140000 6.280000 3.140000 -8.921100 -0.000000 0.000000 -0.423564
244 1 4.710000 7.850000 4.710000 -8.899980 -0.000000 0.000000 -0.005206
245 1 3.140000 6.280000 6.280000 -8.899980 -0.000000 0.000000 0.000000
246 1 4.710000 7.850000 7.850000 -8.899980 -0.000000 0.000000 0.000000
247 1 3.140000 6.280000 9.420000 -8.899980 0.000000 0.000000 -0.000000
248 1 4.710000 7.850000 10.990000 -8.899980 -0.000000 0.000000 0.005206
249 1 3.140000 6.280000 12.560000 -8.921100 -0.000000 0.000000 0.423564
250 1 4.710000 7.850000 14.130000 -8.709288 -0.000000 0.000000 -0.036036
251 1 3.140000 6.280000 15.700000 -7.379118 0.000000 0.000000 -0.392736
261 1 3.140000 9.420000 0.000000 -7.379118 -0.000000 -0.000000 0.392736
262 1 4.710000 10.990000 1.570000 -8.709288 -0.000000 -0.000000 0.036036
263 1 3.140000 9.420000 3.140000 -8.921100 -0.000000 -0.000000 -0.423564
264 1 4.710000 10.990000 4.710000 -8.899980 -0.000000 -0.000000 -0.005206
265 1 3.140000 9.420000 6.280000 -8.899980 -0.000000 -0.000000 0.000000
266 1 4.710000 10.990000 7.850000 -8.899980 -0.000000 -0.000000 0.000000
267 1 3.140000 9.420000 9.420000 -8.899980 0.000000 -0.000000 -0.000000
268 1 4.710000 10.990000 10.990000 -8.899980 -0.000000 -0.000000 0.005206
269 1 3.140000 9.420000 12.560000 -8.921100 0.000000 -0.000000 0.423564
270 1 4.710000 10.990000 14.130000 -8.709288 -0.000000 -0.000000 -0.036036
271 1 3.140000 9.420000 15.700000 -7.379118 0.000000 -0.000000 -0.392736
281 1 3.140000 12.560000 0.000000 -7.379118 0.000000 -0.000000 0.392736
282 1 4.710000 14.130000 1.570000 -8.709288 -0.000000 -0.000000 0.036036
283 1 3.140000 12.560000 3.140000 -8.921100 -0.000000 -0.000000 -0.423564
284 1 4.710000 14.130000 4.710000 -8.899980 -0.000000 -0.000000 -0.005206
285 1 3.140000 12.560000 6.280000 -8.899980 -0.000000 -0.000000 0.000000
286 1 4.710000 14.130000 7.850000 -8.899980 -0.000000 -0.000000 0.000000
287 1 3.140000 12.560000 9.420000 -8.899980 0.000000 -0.000000 -0.000000
288 1 4.710000 14.130000 10.990000 -8.899980 -0.000000 -0.000000 0.005206
289 1 3.140000 12.560000 12.560000 -8.921100 0.000000 -0.000000 0.423564
290 1 4.710000 14.130000 14.130000 -8.709288 -0.000000 0.000000 -0.036036
291 1 3.140000 12.560000 15.700000 -7.379118 0.000000 -0.000000 -0.392736
301 1 3.140000 15.700000 0.000000 -7.379118 0.000000 0.000000 0.392736
302 1 4.710000 17.270000 1.570000 -8.709288 -0.000000 -0.000000 0.036036
303 1 3.140000 15.700000 3.140000 -8.921100 -0.000000 0.000000 -0.423564
304 1 4.710000 17.270000 4.710000 -8.899980 -0.000000 0.000000 -0.005206
305 1 3.140000 15.700000 6.280000 -8.899980 -0.000000 -0.000000 0.000000
306 1 4.710000 17.270000 7.850000 -8.899980 -0.000000 -0.000000 0.000000
307 1 3.140000 15.700000 9.420000 -8.899980 -0.000000 0.000000 -0.000000
308 1 4.710000 17.270000 10.990000 -8.899980 -0.000000 0.000000 0.005206
309 1 3.140000 15.700000 12.560000 -8.921100 0.000000 -0.000000 0.423564
310 1 4.710000 17.270000 14.130000 -8.709288 -0.000000 0.000000 -0.036036
311 1 3.140000 15.700000 15.700000 -7.379118 -0.000000 0.000000 -0.392736
321 1 3.140000 18.840000 0.000000 -7.379118 -0.000000 -0.000000 0.392736
322 1 4.710000 20.410000 1.570000 -8.709288 -0.000000 0.000000 0.036036
323 1 3.140000 18.840000 3.140000 -8.921100 -0.000000 0.000000 -0.423564
324 1 4.710000 20.410000 4.710000 -8.899980 -0.000000 0.000000 -0.005206
325 1 3.140000 18.840000 6.280000 -8.899980 0.000000 0.000000 0.000000
326 1 4.710000 20.410000 7.850000 -8.899980 -0.000000 0.000000 0.000000
327 1 3.140000 18.840000 9.420000 -8.899980 0.000000 0.000000 -0.000000
328 1 4.710000 20.410000 10.990000 -8.899980 -0.000000 0.000000 0.005206
329 1 3.140000 18.840000 12.560000 -8.921100 0.000000 0.000000 0.423564
330 1 4.710000 20.410000 14.130000 -8.709288 -0.000000 0.000000 -0.036036
331 1 3.140000 18.840000 15.700000 -7.379118 0.000000 -0.000000 -0.392736
341 1 3.140000 21.980000 0.000000 -7.379118 -0.000000 0.000000 0.392736
342 1 4.710000 23.550000 1.570000 -8.709288 -0.000000 0.000000 0.036036
343 1 3.140000 21.980000 3.140000 -8.921100 -0.000000 -0.000000 -0.423564
344 1 4.710000 23.550000 4.710000 -8.899980 -0.000000 0.000000 -0.005206
345 1 3.140000 21.980000 6.280000 -8.899980 -0.000000 -0.000000 0.000000
346 1 4.710000 23.550000 7.850000 -8.899980 -0.000000 0.000000 0.000000
347 1 3.140000 21.980000 9.420000 -8.899980 0.000000 -0.000000 -0.000000
348 1 4.710000 23.550000 10.990000 -8.899980 -0.000000 0.000000 0.005206
349 1 3.140000 21.980000 12.560000 -8.921100 0.000000 -0.000000 0.423564
350 1 4.710000 23.550000 14.130000 -8.709288 -0.000000 -0.000000 -0.036036
351 1 3.140000 21.980000 15.700000 -7.379118 0.000000 0.000000 -0.392736
361 1 3.140000 25.120000 0.000000 -7.379118 -0.000000 0.000000 0.392736
362 1 4.710000 26.690000 1.570000 -8.709288 -0.000000 0.000000 0.036036
363 1 3.140000 25.120000 3.140000 -8.921100 -0.000000 -0.000000 -0.423564
364 1 4.710000 26.690000 4.710000 -8.899980 -0.000000 0.000000 -0.005206
365 1 3.140000 25.120000 6.280000 -8.899980 -0.000000 -0.000000 0.000000
366 1 4.710000 26.690000 7.850000 -8.899980 -0.000000 0.000000 0.000000
367 1 3.140000 25.120000 9.420000 -8.899980 0.000000 -0.000000 -0.000000
368 1 4.710000 26.690000 10.990000 -8.899980 -0.000000 0.000000 0.005206
369 1 3.140000 25.120000 12.560000 -8.921100 0.000000 -0.000000 0.423564
370 1 4.710000 26.690000 14.130000 -8.709288 -0.000000 0.000000 -0.036036
371 1 3.140000 25.120000 15.700000 -7.379118 0.000000 0.000000 -0.392736
381 1 3.140000 28.260000 0.000000 -7.379118 -0.000000 -0.000000 0.392736
382 1 4.710000 29.830000 1.570000 -8.709288 -0.000000 -0.000000 0.036036
383 1 3.140000 28.260000 3.140000 -8.921100 -0.000000 -0.000000 -0.423564
384 1 4.710000 29.830000 4.710000 -8.899980 -0.000000 -0.000000 -0.005206
385 1 3.140000 28.260000 6.280000 -8.899980 -0.000000 0.000000 0.000000
386 1 4.710000 29.830000 7.850000 -8.899980 -0.000000 -0.000000 0.000000
387 1 3.140000 28.260000 9.420000 -8.899980 0.000000 0.000000 -0.000000
388 1 4.710000 29.830000 10.990000 -8.899980 -0.000000 -0.000000 0.005206
389 1 3.140000 28.260000 12.560000 -8.921100 -0.000000 0.000000 0.423564
390 1 4.710000 29.830000 14.130000 -8.709288 -0.000000 0.000000 -0.036036
391 1 3.140000 28.260000 15.700000 -7.379118 0.000000 -0.000000 -0.392736
401 1 6.280000 0.000000 0.000000 -7.379118 0.000000 0.000000 0.392736
402 1 7.850000 1.570000 1.570000 -8.709288 0.000000 0.000000 0.036036
403 1 6.280000 0.000000 3.140000 -8.921100 0.000000 0.000000 -0.423564
404 1 7.850000 1.570000 4.710000 -8.899980 0.000000 0.000000 -0.005206
405 1 6.280000 0.000000 6.280000 -8.899980 0.000000 -0.000000 0.000000
406 1 7.850000 1.570000 7.850000 -8.899980 0.000000 0.000000 0.000000
407 1 6.280000 0.000000 9.420000 -8.899980 0.000000 -0.000000 -0.000000
408 1 7.850000 1.570000 10.990000 -8.899980 0.000000 0.000000 0.005206
409 1 6.280000 0.000000 12.560000 -8.921100 0.000000 -0.000000 0.423564
410 1 7.850000 1.570000 14.130000 -8.709288 0.000000 0.000000 -0.036036
411 1 6.280000 0.000000 15.700000 -7.379118 0.000000 0.000000 -0.392736
421 1 6.280000 3.140000 0.000000 -7.379118 0.000000 0.000000 0.392736
422 1 7.850000 4.710000 1.570000 -8.709288 0.000000 -0.000000 0.036036
423 1 6.280000 3.140000 3.140000 -8.921100 0.000000 0.000000 -0.423564
424 1 7.850000 4.710000 4.710000 -8.899980 0.000000 -0.000000 -0.005206
425 1 6.280000 3.140000 6.280000 -8.899980 0.000000 0.000000 0.000000
426 1 7.850000 4.710000 7.850000 -8.899980 0.000000 -0.000000 0.000000
427 1 6.280000 3.140000 9.420000 -8.899980 0.000000 -0.000000 -0.000000
428 1 7.850000 4.710000 10.990000 -8.899980 0.000000 -0.000000 0.005206
429 1 6.280000 3.140000 12.560000 -8.921100 0.000000 0.000000 0.423564
430 1 7.850000 4.710000 14.130000 -8.709288 0.000000 -0.000000 -0.036036
431 1 6.280000 3.140000 15.700000 -7.379118 0.000000 -0.000000 -0.392736
441 1 6.280000 6.280000 0.000000 -7.379118 0.000000 0.000000 0.392736
442 1 7.850000 7.850000 1.570000 -8.709288 0.000000 0.000000 0.036036
443 1 6.280000 6.280000 3.140000 -8.921100 0.000000 0.000000 -0.423564
444 1 7.850000 7.850000 4.710000 -8.899980 0.000000 0.000000 -0.005206
445 1 6.280000 6.280000 6.280000 -8.899980 0.000000 0.000000 0.000000
446 1 7.850000 7.850000 7.850000 -8.899980 0.000000 0.000000 0.000000
447 1 6.280000 6.280000 9.420000 -8.899980 0.000000 0.000000 -0.000000
448 1 7.850000 7.850000 10.990000 -8.899980 0.000000 0.000000 0.005206
449 1 6.280000 6.280000 12.560000 -8.921100 0.000000 0.000000 0.423564
450 1 7.850000 7.850000 14.130000 -8.709288 0.000000 0.000000 -0.036036
451 1 6.280000 6.280000 15.700000 -7.379118 0.000000 0.000000 -0.392736
461 1 6.280000 9.420000 0.000000 -7.379118 0.000000 -0.000000 0.392736
462 1 7.850000 10.990000 1.570000 -8.709288 0.000000 -0.000000 0.036036
463 1 6.280000 9.420000 3.140000 -8.921100 0.000000 -0.000000 -0.423564
464 1 7.850000 10.990000 4.710000 -8.899980 0.000000 -0.000000 -0.005206
465 1 6.280000 9.420000 6.280000 -8.899980 0.000000 -0.000000 0.000000
466 1 7.850000 10.990000 7.850000 -8.899980 0.000000 -0.000000 0.000000
467 1 6.280000 9.420000 9.420000 -8.899980 0.000000 -0.000000 -0.000000
468 1 7.850000 10.990000 10.990000 -8.899980 0.000000 -0.000000 0.005206
469 1 6.280000 9.420000 12.560000 -8.921100 0.000000 -0.000000 0.423564
470 1 7.850000 10.990000 14.130000 -8.709288 0.000000 -0.000000 -0.036036
471 1 6.280000 9.420000 15.700000 -7.379118 0.000000 -0.000000 -0.392736
481 1 6.280000 12.560000 0.000000 -7.379118 0.000000 -0.000000 0.392736
482 1 7.850000 14.130000 1.570000 -8.709288 0.000000 -0.000000 0.036036
483 1 6.280000 12.560000 3.140000 -8.921100 0.000000 -0.000000 -0.423564
484 1 7.850000 14.130000 4.710000 -8.899980 0.000000 -0.000000 -0.005206
485 1 6.280000 12.560000 6.280000 -8.899980 0.000000 -0.000000 0.000000
486 1 7.850000 14.130000 7.850000 -8.899980 0.000000 -0.000000 0.000000
487 1 6.280000 12.560000 9.420000 -8.899980 0.000000 -0.000000 -0.000000
488 1 7.850000 14.130000 10.990000 -8.899980 0.000000 -0.000000 0.005206
489 1 6.280000 12.560000 12.560000 -8.921100 0.000000 -0.000000 0.423564
490 1 7.850000 14.130000 14.130000 -8.709288 0.000000 -0.000000 -0.036036
491 1 6.280000 12.560000 15.700000 -7.379118 0.000000 -0.000000 -0.392736
501 1 6.280000 15.700000 0.000000 -7.379118 0.000000 0.000000 0.392736
502 1 7.850000 17.270000 1.570000 -8.709288 0.000000 -0.000000 0.036036
503 1 6.280000 15.700000 3.140000 -8.921100 0.000000 -0.000000 -0.423564
504 1 7.850000 17.270000 4.710000 -8.899980 0.000000 -0.000000 -0.005206
505 1 6.280000 15.700000 6.280000 -8.899980 0.000000 -0.000000 0.000000
506 1 7.850000 17.270000 7.850000 -8.899980 0.000000 0.000000 0.000000
507 1 6.280000 15.700000 9.420000 -8.899980 0.000000 0.000000 -0.000000
508 1 7.850000 17.270000 10.990000 -8.899980 0.000000 -0.000000 0.005206
509 1 6.280000 15.700000 12.560000 -8.921100 0.000000 -0.000000 0.423564
510 1 7.850000 17.270000 14.130000 -8.709288 0.000000 -0.000000 -0.036036
511 1 6.280000 15.700000 15.700000 -7.379118 0.000000 0.000000 -0.392736
521 1 6.280000 18.840000 0.000000 -7.379118 0.000000 -0.000000 0.392736
522 1 7.850000 20.410000 1.570000 -8.709288 0.000000 0.000000 0.036036
523 1 6.280000 18.840000 3.140000 -8.921100 0.000000 0.000000 -0.423564
524 1 7.850000 20.410000 4.710000 -8.899980 0.000000 0.000000 -0.005206
525 1 6.280000 18.840000 6.280000 -8.899980 0.000000 0.000000 0.000000
526 1 7.850000 20.410000 7.850000 -8.899980 0.000000 0.000000 0.000000
527 1 6.280000 18.840000 9.420000 -8.899980 0.000000 0.000000 -0.000000
528 1 7.850000 20.410000 10.990000 -8.899980 0.000000 0.000000 0.005206
529 1 6.280000 18.840000 12.560000 -8.921100 0.000000 0.000000 0.423564
530 1 7.850000 20.410000 14.130000 -8.709288 0.000000 0.000000 -0.036036
531 1 6.280000 18.840000 15.700000 -7.379118 0.000000 -0.000000 -0.392736
541 1 6.280000 21.980000 0.000000 -7.379118 0.000000 0.000000 0.392736
542 1 7.850000 23.550000 1.570000 -8.709288 0.000000 0.000000 0.036036
543 1 6.280000 21.980000 3.140000 -8.921100 0.000000 -0.000000 -0.423564
544 1 7.850000 23.550000 4.710000 -8.899980 0.000000 0.000000 -0.005206
545 1 6.280000 21.980000 6.280000 -8.899980 0.000000 -0.000000 0.000000
546 1 7.850000 23.550000 7.850000 -8.899980 0.000000 -0.000000 0.000000
547 1 6.280000 21.980000 9.420000 -8.899980 0.000000 0.000000 -0.000000
548 1 7.850000 23.550000 10.990000 -8.899980 0.000000 0.000000 0.005206
549 1 6.280000 21.980000 12.560000 -8.921100 0.000000 0.000000 0.423564
550 1 7.850000 23.550000 14.130000 -8.709288 0.000000 0.000000 -0.036036
551 1 6.280000 21.980000 15.700000 -7.379118 0.000000 -0.000000 -0.392736
561 1 6.280000 25.120000 0.000000 -7.379118 0.000000 0.000000 0.392736
562 1 7.850000 26.690000 1.570000 -8.709288 0.000000 0.000000 0.036036
563 1 6.280000 25.120000 3.140000 -8.921100 0.000000 -0.000000 -0.423564
564 1 7.850000 26.690000 4.710000 -8.899980 0.000000 0.000000 -0.005206
565 1 6.280000 25.120000 6.280000 -8.899980 0.000000 -0.000000 0.000000
566 1 7.850000 26.690000 7.850000 -8.899980 0.000000 -0.000000 0.000000
567 1 6.280000 25.120000 9.420000 -8.899980 0.000000 -0.000000 -0.000000
568 1 7.850000 26.690000 10.990000 -8.899980 0.000000 0.000000 0.005206
569 1 6.280000 25.120000 12.560000 -8.921100 0.000000 0.000000 0.423564
570 1 7.850000 26.690000 14.130000 -8.709288 0.000000 0.000000 -0.036036
571 1 6.280000 25.120000 15.700000 -7.379118 0.000000 -0.000000 -0.392736
581 1 6.280000 28.260000 0.000000 -7.379118 0.000000 -0.000000 0.392736
582 1 7.850000 29.830000 1.570000 -8.709288 0.000000 -0.000000 0.036036
583 1 6.280000 28.260000 3.140000 -8.921100 0.000000 -0.000000 -0.423564
584 1 7.850000 29.830000 4.710000 -8.899980 0.000000 -0.000000 -0.005206
585 1 6.280000 28.260000 6.280000 -8.899980 0.000000 0.000000 0.000000
586 1 7.850000 29.830000 7.850000 -8.899980 0.000000 -0.000000 0.000000
587 1 6.280000 28.260000 9.420000 -8.899980 0.000000 -0.000000 -0.000000
588 1 7.850000 29.830000 10.990000 -8.899980 0.000000 -0.000000 0.005206
589 1 6.280000 28.260000 12.560000 -8.921100 0.000000 0.000000 0.423564
590 1 7.850000 29.830000 14.130000 -8.709288 0.000000 -0.000000 -0.036036
591 1 6.280000 28.260000 15.700000 -7.379118 0.000000 0.000000 -0.392736
601 1 9.420000 0.000000 0.000000 -7.379118 -0.000000 0.000000 0.392736
602 1 10.990000 1.570000 1.570000 -8.709288 -0.000000 0.000000 0.036036
603 1 9.420000 0.000000 3.140000 -8.921100 -0.000000 -0.000000 -0.423564
604 1 10.990000 1.570000 4.710000 -8.899980 -0.000000 0.000000 -0.005206
605 1 9.420000 0.000000 6.280000 -8.899980 -0.000000 -0.000000 0.000000
606 1 10.990000 1.570000 7.850000 -8.899980 -0.000000 0.000000 0.000000
607 1 9.420000 0.000000 9.420000 -8.899980 -0.000000 -0.000000 -0.000000
608 1 10.990000 1.570000 10.990000 -8.899980 -0.000000 0.000000 0.005206
609 1 9.420000 0.000000 12.560000 -8.921100 -0.000000 -0.000000 0.423564
610 1 10.990000 1.570000 14.130000 -8.709288 -0.000000 0.000000 -0.036036
611 1 9.420000 0.000000 15.700000 -7.379118 -0.000000 -0.000000 -0.392736
621 1 9.420000 3.140000 0.000000 -7.379118 -0.000000 0.000000 0.392736
622 1 10.990000 4.710000 1.570000 -8.709288 -0.000000 -0.000000 0.036036
623 1 9.420000 3.140000 3.140000 -8.921100 -0.000000 0.000000 -0.423564
624 1 10.990000 4.710000 4.710000 -8.899980 -0.000000 -0.000000 -0.005206
625 1 9.420000 3.140000 6.280000 -8.899980 -0.000000 -0.000000 0.000000
626 1 10.990000 4.710000 7.850000 -8.899980 -0.000000 -0.000000 0.000000
627 1 9.420000 3.140000 9.420000 -8.899980 -0.000000 0.000000 -0.000000
628 1 10.990000 4.710000 10.990000 -8.899980 -0.000000 -0.000000 0.005206
629 1 9.420000 3.140000 12.560000 -8.921100 -0.000000 0.000000 0.423564
630 1 10.990000 4.710000 14.130000 -8.709288 -0.000000 -0.000000 -0.036036
631 1 9.420000 3.140000 15.700000 -7.379118 -0.000000 0.000000 -0.392736
641 1 9.420000 6.280000 0.000000 -7.379118 -0.000000 0.000000 0.392736
642 1 10.990000 7.850000 1.570000 -8.709288 -0.000000 0.000000 0.036036
643 1 9.420000 6.280000 3.140000 -8.921100 -0.000000 0.000000 -0.423564
644 1 10.990000 7.850000 4.710000 -8.899980 -0.000000 0.000000 -0.005206
645 1 9.420000 6.280000 6.280000 -8.899980 -0.000000 0.000000 0.000000
646 1 10.990000 7.850000 7.850000 -8.899980 -0.000000 0.000000 0.000000
647 1 9.420000 6.280000 9.420000 -8.899980 -0.000000 0.000000 -0.000000
648 1 10.990000 7.850000 10.990000 -8.899980 -0.000000 0.000000 0.005206
649 1 9.420000 6.280000 12.560000 -8.921100 -0.000000 0.000000 0.423564
650 1 10.990000 7.850000 14.130000 -8.709288 -0.000000 0.000000 -0.036036
651 1 9.420000 6.280000 15.700000 -7.379118 -0.000000 0.000000 -0.392736
661 1 9.420000 9.420000 0.000000 -7.379118 -0.000000 -0.000000 0.392736
662 1 10.990000 10.990000 1.570000 -8.709288 -0.000000 -0.000000 0.036036
663 1 9.420000 9.420000 3.140000 -8.921100 -0.000000 -0.000000 -0.423564
664 1 10.990000 10.990000 4.710000 -8.899980 -0.000000 -0.000000 -0.005206
665 1 9.420000 9.420000 6.280000 -8.899980 -0.000000 -0.000000 0.000000
666 1 10.990000 10.990000 7.850000 -8.899980 -0.000000 -0.000000 0.000000
667 1 9.420000 9.420000 9.420000 -8.899980 -0.000000 -0.000000 -0.000000
668 1 10.990000 10.990000 10.990000 -8.899980 -0.000000 -0.000000 0.005206
669 1 9.420000 9.420000 12.560000 -8.921100 -0.000000 -0.000000 0.423564
670 1 10.990000 10.990000 14.130000 -8.709288 -0.000000 -0.000000 -0.036036
671 1 9.420000 9.420000 15.700000 -7.379118 -0.000000 -0.000000 -0.392736
681 1 9.420000 12.560000 0.000000 -7.379118 -0.000000 -0.000000 0.392736
682 1 10.990000 14.130000 1.570000 -8.709288 -0.000000 -0.000000 0.036036
683 1 9.420000 12.560000 3.140000 -8.921100 -0.000000 -0.000000 -0.423564
684 1 10.990000 14.130000 4.710000 -8.899980 -0.000000 -0.000000 -0.005206
685 1 9.420000 12.560000 6.280000 -8.899980 -0.000000 -0.000000 0.000000
686 1 10.990000 14.130000 7.850000 -8.899980 -0.000000 -0.000000 0.000000
687 1 9.420000 12.560000 9.420000 -8.899980 -0.000000 -0.000000 -0.000000
688 1 10.990000 14.130000 10.990000 -8.899980 -0.000000 0.000000 0.005206
689 1 9.420000 12.560000 12.560000 -8.921100 -0.000000 -0.000000 0.423564
690 1 10.990000 14.130000 14.130000 -8.709288 -0.000000 -0.000000 -0.036036
691 1 9.420000 12.560000 15.700000 -7.379118 -0.000000 -0.000000 -0.392736
701 1 9.420000 15.700000 0.000000 -7.379118 -0.000000 0.000000 0.392736
702 1 10.990000 17.270000 1.570000 -8.709288 -0.000000 0.000000 0.036036
703 1 9.420000 15.700000 3.140000 -8.921100 -0.000000 0.000000 -0.423564
704 1 10.990000 17.270000 4.710000 -8.899980 -0.000000 0.000000 -0.005206
705 1 9.420000 15.700000 6.280000 -8.899980 -0.000000 -0.000000 0.000000
706 1 10.990000 17.270000 7.850000 -8.899980 -0.000000 -0.000000 0.000000
707 1 9.420000 15.700000 9.420000 -8.899980 -0.000000 -0.000000 -0.000000
708 1 10.990000 17.270000 10.990000 -8.899980 -0.000000 0.000000 0.005206
709 1 9.420000 15.700000 12.560000 -8.921100 -0.000000 0.000000 0.423564
710 1 10.990000 17.270000 14.130000 -8.709288 -0.000000 0.000000 -0.036036
711 1 9.420000 15.700000 15.700000 -7.379118 -0.000000 0.000000 -0.392736
721 1 9.420000 18.840000 0.000000 -7.379118 -0.000000 -0.000000 0.392736
722 1 10.990000 20.410000 1.570000 -8.709288 -0.000000 0.000000 0.036036
723 1 9.420000 18.840000 3.140000 -8.921100 -0.000000 0.000000 -0.423564
724 1 10.990000 20.410000 4.710000 -8.899980 -0.000000 0.000000 -0.005206
725 1 9.420000 18.840000 6.280000 -8.899980 -0.000000 0.000000 0.000000
726 1 10.990000 20.410000 7.850000 -8.899980 -0.000000 0.000000 0.000000
727 1 9.420000 18.840000 9.420000 -8.899980 -0.000000 0.000000 -0.000000
728 1 10.990000 20.410000 10.990000 -8.899980 -0.000000 0.000000 0.005206
729 1 9.420000 18.840000 12.560000 -8.921100 -0.000000 0.000000 0.423564
730 1 10.990000 20.410000 14.130000 -8.709288 -0.000000 0.000000 -0.036036
731 1 9.420000 18.840000 15.700000 -7.379118 -0.000000 -0.000000 -0.392736
741 1 9.420000 21.980000 0.000000 -7.379118 -0.000000 0.000000 0.392736
742 1 10.990000 23.550000 1.570000 -8.709288 -0.000000 0.000000 0.036036
743 1 9.420000 21.980000 3.140000 -8.921100 -0.000000 -0.000000 -0.423564
744 1 10.990000 23.550000 4.710000 -8.899980 -0.000000 0.000000 -0.005206
745 1 9.420000 21.980000 6.280000 -8.899980 -0.000000 -0.000000 0.000000