ITEM: TIMESTEP
1
ITEM: NUMBER OF ATOMS
863
ITEM: BOX BOUNDS pp pp pp
0.000000 25.380000
0.000000 25.380000
0.000000 25.380000
ITEM: ATOMS id type x y z pe fx fy fz
1 1 0.000000 0.000000 0.000000 -0.026510 0.000009 0.000009 0.000009
2 1 2.115000 2.115000 0.000000 -0.026510 0.000009 0.000009 0.000009
3 1 2.115000 0.000000 2.115000 -0.026510 0.000009 0.000009 0.000009
4 1 0.000000 2.115000 2.115000 -0.026510 0.000009 0.000009 0.000009
5 1 0.000000 0.000000 4.230000 -0.026510 0.000009 0.000009 0.000009
6 1 2.115000 2.115000 4.230000 -0.026510 0.000009 0.000009 0.000009
7 1 2.115000 0.000000 6.345000 -0.026510 0.000009 0.000009 -0.000009
8 1 0.000000 2.115000 6.345000 -0.026510 0.000009 0.000009 -0.000009
9 1 0.000000 0.000000 8.460000 -0.026510 0.000009 0.000009 0.000009
10 1 2.115000 2.115000 8.460000 -0.026510 0.000009 0.000009 0.000009
11 1 2.115000 0.000000 10.575000 -0.026510 0.000009 0.000009 0.000009
12 1 0.000000 2.115000 10.575000 -0.026510 0.000009 0.000009 0.000009
13 1 0.000000 0.000000 12.690000 -0.026510 0.000009 0.000009 -0.000009
14 1 2.115000 2.115000 12.690000 -0.026510 0.000009 0.000009 -0.000009
15 1 2.115000 0.000000 14.805000 -0.026510 0.000009 0.000009 -0.000009
16 1 0.000000 2.115000 14.805000 -0.026510 0.000009 0.000009 -0.000009
17 1 0.000000 0.000000 16.920000 -0.026510 0.000009 0.000009 -0.000009
18 1 2.115000 2.115000 16.920000 -0.026510 0.000009 0.000009 -0.000009
19 1 2.115000 0.000000 19.035000 -0.026510 0.000009 0.000009 0.000009
20 1 0.000000 2.115000 19.035000 -0.026510 0.000009 0.000009 0.000009
21 1 0.000000 0.000000 21.150000 -0.026510 0.000009 0.000009 -0.000009
22 1 2.115000 2.115000 21.150000 -0.026510 0.000009 0.000009 -0.000009
23 1 2.115000 0.000000 23.265000 -0.026510 0.000009 0.000009 -0.000009
24 1 0.000000 2.115000 23.265000 -0.026510 0.000009 0.000009 -0.000009
25 1 0.000000 4.230000 0.000000 -0.026510 0.000009 0.000009 0.000009
26 1 2.115000 6.345000 0.000000 -0.026510 0.000009 -0.000009 0.000009
27 1 2.115000 4.230000 2.115000 -0.026510 0.000009 0.000009 0.000009
28 1 0.000000 6.345000 2.115000 -0.026510 0.000009 -0.000009 0.000009
29 1 0.000000 4.230000 4.230000 -0.026510 0.000009 0.000009 0.000009
30 1 2.115000 6.345000 4.230000 -0.026510 0.000009 -0.000009 0.000009
31 1 2.115000 4.230000 6.345000 -0.026510 0.000009 0.000009 -0.000009
32 1 0.000000 6.345000 6.345000 -0.026510 0.000009 -0.000009 -0.000009
33 1 0.000000 4.230000 8.460000 -0.026510 0.000009 0.000009 0.000009
34 1 2.115000 6.345000 8.460000 -0.026509 0.000009 -0.000010 0.000009
35 1 2.115000 4.230000 10.575000 -0.026509 0.000009 0.000009 0.000009
36 1 0.000000 6.345000 10.575000 -0.026509 0.000009 -0.000009 0.000009
37 1 0.000000 4.230000 12.690000 -0.026510 0.000009 0.000009 -0.000009
38 1 2.115000 6.345000 12.690000 -0.026509 0.000009 -0.000010 -0.000009
39 1 2.115000 4.230000 14.805000 -0.026509 0.000009 0.000009 -0.000009
40 1 0.000000 6.345000 14.805000 -0.026509 0.000009 -0.000009 -0.000009
41 1 0.000000 4.230000 16.920000 -0.026510 0.000009 0.000009 -0.000009
42 1 2.115000 6.345000 16.920000 -0.026509 0.000009 -0.000010 -0.000009
43 1 2.115000 4.230000 19.035000 -0.026510 0.000009 0.000009 0.000009
44 1 0.000000 6.345000 19.035000 -0.026510 0.000009 -0.000009 0.000009
45 1 0.000000 4.230000 21.150000 -0.026510 0.000009 0.000009 -0.000009
46 1 2.115000 6.345000 21.150000 -0.026510 0.000009 -0.000009 -0.000009
47 1 2.115000 4.230000 23.265000 -0.026510 0.000009 0.000009 -0.000009
48 1 0.000000 6.345000 23.265000 -0.026510 0.000009 -0.000009 -0.000009
49 1 0.000000 8.460000 0.000000 -0.026510 0.000009 0.000009 0.000009
50 1 2.115000 10.575000 0.000000 -0.026510 0.000009 0.000009 0.000009
51 1 2.115000 8.460000 2.115000 -0.026510 0.000009 0.000009 0.000009
52 1 0.000000 10.575000 2.115000 -0.026510 0.000009 0.000009 0.000009
53 1 0.000000 8.460000 4.230000 -0.026510 0.000009 0.000009 0.000009
54 1 2.115000 10.575000 4.230000 -0.026509 0.000009 0.000009 0.000009
55 1 2.115000 8.460000 6.345000 -0.026509 0.000009 0.000009 -0.000010
56 1 0.000000 10.575000 6.345000 -0.026509 0.000009 0.000009 -0.000009
57 1 0.000000 8.460000 8.460000 -0.026509 0.000009 0.000009 0.000009
58 1 2.115000 10.575000 8.460000 -0.026509 0.000008 0.000009 0.000009
59 1 2.115000 8.460000 10.575000 -0.026509 0.000008 0.000009 0.000009
60 1 0.000000 10.575000 10.575000 -0.026509 0.000009 0.000009 0.000009
61 1 0.000000 8.460000 12.690000 -0.026509 0.000009 0.000009 -0.000009
62 1 2.115000 10.575000 12.690000 -0.026508 0.000007 0.000009 -0.000009
63 1 2.115000 8.460000 14.805000 -0.026509 0.000008 0.000009 -0.000009
64 1 0.000000 10.575000 14.805000 -0.026509 0.000009 0.000009 -0.000009
65 1 0.000000 8.460000 16.920000 -0.026509 0.000009 0.000009 -0.000009
66 1 2.115000 10.575000 16.920000 -0.026509 0.000008 0.000009 -0.000009
67 1 2.115000 8.460000 19.035000 -0.026509 0.000009 0.000009 0.000010
68 1 0.000000 10.575000 19.035000 -0.026509 0.000009 0.000009 0.000009
69 1 0.000000 8.460000 21.150000 -0.026510 0.000009 0.000009 -0.000009
70 1 2.115000 10.575000 21.150000 -0.026509 0.000009 0.000009 -0.000009
71 1 2.115000 8.460000 23.265000 -0.026510 0.000009 0.000009 -0.000009
72 1 0.000000 10.575000 23.265000 -0.026510 0.000009 0.000009 -0.000009
73 1 0.000000 12.690000 0.000000 -0.026510 0.000009 -0.000009 0.000009
74 1 2.115000 14.805000 0.000000 -0.026510 0.000009 -0.000009 0.000009
75 1 2.115000 12.690000 2.115000 -0.026510 0.000009 -0.000009 0.000009
76 1 0.000000 14.805000 2.115000 -0.026510 0.000009 -0.000009 0.000009
77 1 0.000000 12.690000 4.230000 -0.026510 0.000009 -0.000009 0.000009
78 1 2.115000 14.805000 4.230000 -0.026509 0.000009 -0.000009 0.000009
79 1 2.115000 12.690000 6.345000 -0.026509 0.000009 -0.000009 -0.000010
80 1 0.000000 14.805000 6.345000 -0.026509 0.000009 -0.000009 -0.000009
81 1 0.000000 12.690000 8.460000 -0.026509 0.000009 -0.000009 0.000009
82 1 2.115000 14.805000 8.460000 -0.026509 0.000008 -0.000009 0.000009
83 1 2.115000 12.690000 10.575000 -0.026508 0.000007 -0.000009 0.000009
84 1 0.000000 14.805000 10.575000 -0.026509 0.000009 -0.000009 0.000009
85 1 0.000000 12.690000 12.690000 -0.026509 0.000009 -0.000009 -0.000009
86 1 2.115000 14.805000 12.690000 -0.026508 0.000007 -0.000009 -0.000009
87 1 2.115000 12.690000 14.805000 -0.026508 0.000007 -0.000009 -0.000009
88 1 0.000000 14.805000 14.805000 -0.026509 0.000009 -0.000009 -0.000009
89 1 0.000000 12.690000 16.920000 -0.026509 0.000009 -0.000009 -0.000009
90 1 2.115000 14.805000 16.920000 -0.026509 0.000008 -0.000009 -0.000009
91 1 2.115000 12.690000 19.035000 -0.026509 0.000009 -0.000009 0.000010
92 1 0.000000 14.805000 19.035000 -0.026509 0.000009 -0.000009 0.000009
93 1 0.000000 12.690000 21.150000 -0.026510 0.000009 -0.000009 -0.000009
94 1 2.115000 14.805000 21.150000 -0.026509 0.000009 -0.000009 -0.000009
95 1 2.115000 12.690000 23.265000 -0.026510 0.000009 -0.000009 -0.000009
96 1 0.000000 14.805000 23.265000 -0.026510 0.000009 -0.000009 -0.000009
97 1 0.000000 16.920000 0.000000 -0.026510 0.000009 -0.000009 0.000009
98 1 2.115000 19.035000 0.000000 -0.026510 0.000009 0.000009 0.000009
99 1 2.115000 16.920000 2.115000 -0.026510 0.000009 -0.000009 0.000009
100 1 0.000000 19.035000 2.115000 -0.026510 0.000009 0.000009 0.000009
101 1 0.000000 16.920000 4.230000 -0.026510 0.000009 -0.000009 0.000009
102 1 2.115000 19.035000 4.230000 -0.026510 0.000009 0.000009 0.000009
103 1 2.115000 16.920000 6.345000 -0.026509 0.000009 -0.000009 -0.000010
104 1 0.000000 19.035000 6.345000 -0.026510 0.000009 0.000009 -0.000009
105 1 0.000000 16.920000 8.460000 -0.026509 0.000009 -0.000009 0.000009
106 1 2.115000 19.035000 8.460000 -0.026509 0.000009 0.000010 0.000009
107 1 2.115000 16.920000 10.575000 -0.026509 0.000008 -0.000009 0.000009
108 1 0.000000 19.035000 10.575000 -0.026509 0.000009 0.000009 0.000009
109 1 0.000000 16.920000 12.690000 -0.026509 0.000009 -0.000009 -0.000009
110 1 2.115000 19.035000 12.690000 -0.026509 0.000009 0.000010 -0.000009
111 1 2.115000 16.920000 14.805000 -0.026509 0.000008 -0.000009 -0.000009
112 1 0.000000 19.035000 14.805000 -0.026509 0.000009 0.000009 -0.000009
113 1 0.000000 16.920000 16.920000 -0.026509 0.000009 -0.000009 -0.000009
114 1 2.115000 19.035000 16.920000 -0.026509 0.000009 0.000010 -0.000009
115 1 2.115000 16.920000 19.035000 -0.026509 0.000009 -0.000009 0.000010
116 1 0.000000 19.035000 19.035000 -0.026510 0.000009 0.000009 0.000009
117 1 0.000000 16.920000 21.150000 -0.026510 0.000009 -0.000009 -0.000009
118 1 2.115000 19.035000 21.150000 -0.026510 0.000009 0.000009 -0.000009
119 1 2.115000 16.920000 23.265000 -0.026510 0.000009 -0.000009 -0.000009
120 1 0.000000 19.035000 23.265000 -0.026510 0.000009 0.000009 -0.000009
121 1 0.000000 21.150000 0.000000 -0.026510 0.000009 -0.000009 0.000009
122 1 2.115000 23.265000 0.000000 -0.026510 0.000009 -0.000009 0.000009
123 1 2.115000 21.150000 2.115000 -0.026510 0.000009 -0.000009 0.000009
124 1 0.000000 23.265000 2.115000 -0.026510 0.000009 -0.000009 0.000009
125 1 0.000000 21.150000 4.230000 -0.026510 0.000009 -0.000009 0.000009
126 1 2.115000 23.265000 4.230000 -0.026510 0.000009 -0.000009 0.000009
127 1 2.115000 21.150000 6.345000 -0.026510 0.000009 -0.000009 -0.000009
128 1 0.000000 23.265000 6.345000 -0.026510 0.000009 -0.000009 -0.000009
129 1 0.000000 21.150000 8.460000 -0.026510 0.000009 -0.000009 0.000009
130 1 2.115000 23.265000 8.460000 -0.026510 0.000009 -0.000009 0.000009
131 1 2.115000 21.150000 10.575000 -0.026509 0.000009 -0.000009 0.000009
132 1 0.000000 23.265000 10.575000 -0.026510 0.000009 -0.000009 0.000009
133 1 0.000000 21.150000 12.690000 -0.026510 0.000009 -0.000009 -0.000009
134 1 2.115000 23.265000 12.690000 -0.026510 0.000009 -0.000009 -0.000009
135 1 2.115000 21.150000 14.805000 -0.026509 0.000009 -0.000009 -0.000009
136 1 0.000000 23.265000 14.805000 -0.026510 0.000009 -0.000009 -0.000009
137 1 0.000000 21.150000 16.920000 -0.026510 0.000009 -0.000009 -0.000009
138 1 2.115000 23.265000 16.920000 -0.026510 0.000009 -0.000009 -0.000009
139 1 2.115000 21.150000 19.035000 -0.026510 0.000009 -0.000009 0.000009
140 1 0.000000 23.265000 19.035000 -0.026510 0.000009 -0.000009 0.000009
141 1 0.000000 21.150000 21.150000 -0.026510 0.000009 -0.000009 -0.000009
142 1 2.115000 23.265000 21.150000 -0.026510 0.000009 -0.000009 -0.000009
143 1 2.115000 21.150000 23.265000 -0.026510 0.000009 -0.000009 -0.000009
144 1 0.000000 23.265000 23.265000 -0.026510 0.000009 -0.000009 -0.000009
145 1 4.230000 0.000000 0.000000 -0.026510 0.000009 0.000009 0.000009
146 1 6.345000 2.115000 0.000000 -0.026510 -0.000009 0.000009 0.000009
147 1 6.345000 0.000000 2.115000 -0.026510 -0.000009 0.000009 0.000009
148 1 4.230000 2.115000 2.115000 -0.026510 0.000009 0.000009 0.000009
149 1 4.230000 0.000000 4.230000 -0.026510 0.000009 0.000009 0.000009
150 1 6.345000 2.115000 4.230000 -0.026510 -0.000009 0.000009 0.000009
151 1 6.345000 0.000000 6.345000 -0.026510 -0.000009 0.000009 -0.000009
152 1 4.230000 2.115000 6.345000 -0.026510 0.000009 0.000009 -0.000009
153 1 4.230000 0.000000 8.460000 -0.026510 0.000009 0.000009 0.000009
154 1 6.345000 2.115000 8.460000 -0.026509 -0.000010 0.000009 0.000009
155 1 6.345000 0.000000 10.575000 -0.026509 -0.000009 0.000009 0.000009
156 1 4.230000 2.115000 10.575000 -0.026509 0.000009 0.000009 0.000009
157 1 4.230000 0.000000 12.690000 -0.026510 0.000009 0.000009 -0.000009
158 1 6.345000 2.115000 12.690000 -0.026509 -0.000010 0.000009 -0.000009
159 1 6.345000 0.000000 14.805000 -0.026509 -0.000009 0.000009 -0.000009
160 1 4.230000 2.115000 14.805000 -0.026509 0.000009 0.000009 -0.000009
161 1 4.230000 0.000000 16.920000 -0.026510 0.000009 0.000009 -0.000009
162 1 6.345000 2.115000 16.920000 -0.026509 -0.000010 0.000009 -0.000009
163 1 6.345000 0.000000 19.035000 -0.026510 -0.000009 0.000009 0.000009
164 1 4.230000 2.115000 19.035000 -0.026510 0.000009 0.000009 0.000009
165 1 4.230000 0.000000 21.150000 -0.026510 0.000009 0.000009 -0.000009
166 1 6.345000 2.115000 21.150000 -0.026510 -0.000009 0.000009 -0.000009
167 1 6.345000 0.000000 23.265000 -0.026510 -0.000009 0.000009 -0.000009
168 1 4.230000 2.115000 23.265000 -0.026510 0.000009 0.000009 -0.000009
169 1 4.230000 4.230000 0.000000 -0.026510 0.000009 0.000009 0.000009
170 1 6.345000 6.345000 0.000000 -0.026510 -0.000009 -0.000009 0.000009
171 1 6.345000 4.230000 2.115000 -0.026510 -0.000009 0.000009 0.000009
172 1 4.230000 6.345000 2.115000 -0.026510 0.000009 -0.000009 0.000009
173 1 4.230000 4.230000 4.230000 -0.026509 0.000009 0.000009 0.000009
174 1 6.345000 6.345000 4.230000 -0.026509 -0.000010 -0.000010 0.000009
175 1 6.345000 4.230000 6.345000 -0.026509 -0.000010 0.000009 -0.000010
176 1 4.230000 6.345000 6.345000 -0.026509 0.000009 -0.000010 -0.000010
177 1 4.230000 4.230000 8.460000 -0.026509 0.000009 0.000009 0.000009
178 1 6.345000 6.345000 8.460000 -0.026507 -0.000011 -0.000011 0.000008
179 1 6.345000 4.230000 10.575000 -0.026508 -0.000010 0.000008 0.000009
180 1 4.230000 6.345000 10.575000 -0.026508 0.000008 -0.000010 0.000009
181 1 4.230000 4.230000 12.690000 -0.026509 0.000009 0.000009 -0.000009
182 1 6.345000 6.345000 12.690000 -0.026505 -0.000014 -0.000014 -0.000009
183 1 6.345000 4.230000 14.805000 -0.026508 -0.000010 0.000008 -0.000009
184 1 4.230000 6.345000 14.805000 -0.026508 0.000008 -0.000010 -0.000009
185 1 4.230000 4.230000 16.920000 -0.026509 0.000009 0.000009 -0.000009
186 1 6.345000 6.345000 16.920000 -0.026507 -0.000011 -0.000011 -0.000008
187 1 6.345000 4.230000 19.035000 -0.026509 -0.000010 0.000009 0.000010
188 1 4.230000 6.345000 19.035000 -0.026509 0.000009 -0.000010 0.000010
189 1 4.230000 4.230000 21.150000 -0.026509 0.000009 0.000009 -0.000009
190 1 6.345000 6.345000 21.150000 -0.026509 -0.000010 -0.000010 -0.000009
191 1 6.345000 4.230000 23.265000 -0.026510 -0.000009 0.000009 -0.000009
192 1 4.230000 6.345000 23.265000 -0.026510 0.000009 -0.000009 -0.000009
193 1 4.230000 8.460000 0.000000 -0.026510 0.000009 0.000009 0.000009
194 1 6.345000 10.575000 0.000000 -0.026509 -0.000009 0.000009 0.000009
195 1 6.345000 8.460000 2.115000 -0.026509 -0.000010 0.000009 0.000009
196 1 4.230000 10.575000 2.115000 -0.026509 0.000009 0.000009 0.000009
197 1 4.230000 8.460000 4.230000 -0.026509 0.000009 0.000009 0.000009
198 1 6.345000 10.575000 4.230000 -0.026508 -0.000010 0.000009 0.000008
199 1 6.345000 8.460000 6.345000 -0.026507 -0.000011 0.000008 -0.000011
200 1 4.230000 10.575000 6.345000 -0.026508 0.000008 0.000009 -0.000010
201 1 4.230000 8.460000 8.460000 -0.026508 0.000007 0.000008 0.000008
202 1 6.345000 10.575000 8.460000 -0.026499 -0.000022 0.000005 0.000001
203 1 6.345000 8.460000 10.575000 -0.026499 -0.000022 0.000001 0.000005
204 1 4.230000 10.575000 10.575000 -0.026505 0.000003 0.000008 0.000008
205 1 4.230000 8.460000 12.690000 -0.026506 0.000005 0.000007 -0.000009
206 1 6.345000 10.575000 12.690000 -0.026481 -0.000059 -0.000007 -0.000009
207 1 6.345000 8.460000 14.805000 -0.026499 -0.000022 0.000001 -0.000005
208 1 4.230000 10.575000 14.805000 -0.026505 0.000003 0.000008 -0.000008
209 1 4.230000 8.460000 16.920000 -0.026508 0.000007 0.000008 -0.000008
210 1 6.345000 10.575000 16.920000 -0.026499 -0.000022 0.000005 -0.000001
211 1 6.345000 8.460000 19.035000 -0.026507 -0.000011 0.000008 0.000011
212 1 4.230000 10.575000 19.035000 -0.026508 0.000008 0.000009 0.000010
213 1 4.230000 8.460000 21.150000 -0.026509 0.000009 0.000009 -0.000009
214 1 6.345000 10.575000 21.150000 -0.026508 -0.000010 0.000009 -0.000008
215 1 6.345000 8.460000 23.265000 -0.026509 -0.000010 0.000009 -0.000009
216 1 4.230000 10.575000 23.265000 -0.026509 0.000009 0.000009 -0.000009
217 1 4.230000 12.690000 0.000000 -0.026510 0.000009 -0.000009 0.000009
218 1 6.345000 14.805000 0.000000 -0.026509 -0.000009 -0.000009 0.000009
219 1 6.345000 12.690000 2.115000 -0.026509 -0.000010 -0.000009 0.000009
220 1 4.230000 14.805000 2.115000 -0.026509 0.000009 -0.000009 0.000009
221 1 4.230000 12.690000 4.230000 -0.026509 0.000009 -0.000009 0.000009
222 1 6.345000 14.805000 4.230000 -0.026508 -0.000010 -0.000009 0.000008
223 1 6.345000 12.690000 6.345000 -0.026505 -0.000014 -0.000009 -0.000014
224 1 4.230000 14.805000 6.345000 -0.026508 0.000008 -0.000009 -0.000010
225 1 4.230000 12.690000 8.460000 -0.026506 0.000005 -0.000009 0.000007
226 1 6.345000 14.805000 8.460000 -0.026499 -0.000022 -0.000005 0.000001
227 1 6.345000 12.690000 10.575000 -0.026481 -0.000059 -0.000009 -0.000007
228 1 4.230000 14.805000 10.575000 -0.026505 0.000003 -0.000008 0.000008
229 1 4.230000 12.690000 12.690000 -0.026503 -0.000001 -0.000009 -0.000009
230 1 6.345000 14.805000 12.690000 -0.026481 -0.000059 0.000007 -0.000009
231 1 6.345000 12.690000 14.805000 -0.026481 -0.000059 -0.000009 0.000007
232 1 4.230000 14.805000 14.805000 -0.026505 0.000003 -0.000008 -0.000008
233 1 4.230000 12.690000 16.920000 -0.026506 0.000005 -0.000009 -0.000007
234 1 6.345000 14.805000 16.920000 -0.026499 -0.000022 -0.000005 -0.000001
235 1 6.345000 12.690000 19.035000 -0.026505 -0.000014 -0.000009 0.000014
236 1 4.230000 14.805000 19.035000 -0.026508 0.000008 -0.000009 0.000010
237 1 4.230000 12.690000 21.150000 -0.026509 0.000009 -0.000009 -0.000009
238 1 6.345000 14.805000 21.150000 -0.026508 -0.000010 -0.000009 -0.000008
239 1 6.345000 12.690000 23.265000 -0.026509 -0.000010 -0.000009 -0.000009
240 1 4.230000 14.805000 23.265000 -0.026509 0.000009 -0.000009 -0.000009
241 1 4.230000 16.920000 0.000000 -0.026510 0.000009 -0.000009 0.000009
242 1 6.345000 19.035000 0.000000 -0.026510 -0.000009 0.000009 0.000009
243 1 6.345000 16.920000 2.115000 -0.026509 -0.000010 -0.000009 0.000009
244 1 4.230000 19.035000 2.115000 -0.026510 0.000009 0.000009 0.000009
245 1 4.230000 16.920000 4.230000 -0.026509 0.000009 -0.000009 0.000009
246 1 6.345000 19.035000 4.230000 -0.026509 -0.000010 0.000010 0.000009
247 1 6.345000 16.920000 6.345000 -0.026507 -0.000011 -0.000008 -0.000011
248 1 4.230000 19.035000 6.345000 -0.026509 0.000009 0.000010 -0.000010
249 1 4.230000 16.920000 8.460000 -0.026508 0.000007 -0.000008 0.000008
250 1 6.345000 19.035000 8.460000 -0.026507 -0.000011 0.000011 0.000008
251 1 6.345000 16.920000 10.575000 -0.026499 -0.000022 -0.000001 0.000005
252 1 4.230000 19.035000 10.575000 -0.026508 0.000008 0.000010 0.000009
253 1 4.230000 16.920000 12.690000 -0.026506 0.000005 -0.000007 -0.000009
254 1 6.345000 19.035000 12.690000 -0.026505 -0.000014 0.000014 -0.000009
255 1 6.345000 16.920000 14.805000 -0.026499 -0.000022 -0.000001 -0.000005
256 1 4.230000 19.035000 14.805000 -0.026508 0.000008 0.000010 -0.000009
257 1 4.230000 16.920000 16.920000 -0.026508 0.000007 -0.000008 -0.000008
258 1 6.345000 19.035000 16.920000 -0.026507 -0.000011 0.000011 -0.000008
259 1 6.345000 16.920000 19.035000 -0.026507 -0.000011 -0.000008 0.000011
260 1 4.230000 19.035000 19.035000 -0.026509 0.000009 0.000010 0.000010
261 1 4.230000 16.920000 21.150000 -0.026509 0.000009 -0.000009 -0.000009
262 1 6.345000 19.035000 21.150000 -0.026509 -0.000010 0.000010 -0.000009
263 1 6.345000 16.920000 23.265000 -0.026509 -0.000010 -0.000009 -0.000009
264 1 4.230000 19.035000 23.265000 -0.026510 0.000009 0.000009 -0.000009
265 1 4.230000 21.150000 0.000000 -0.026510 0.000009 -0.000009 0.000009
266 1 6.345000 23.265000 0.000000 -0.026510 -0.000009 -0.000009 0.000009
267 1 6.345000 21.150000 2.115000 -0.026510 -0.000009 -0.000009 0.000009
268 1 4.230000 23.265000 2.115000 -0.026510 0.000009 -0.000009 0.000009
269 1 4.230000 21.150000 4.230000 -0.026509 0.000009 -0.000009 0.000009
270 1 6.345000 23.265000 4.230000 -0.026510 -0.000009 -0.000009 0.000009
271 1 6.345000 21.150000 6.345000 -0.026509 -0.000010 -0.000009 -0.000010
272 1 4.230000 23.265000 6.345000 -0.026510 0.000009 -0.000009 -0.000009
273 1 4.230000 21.150000 8.460000 -0.026509 0.000009 -0.000009 0.000009
274 1 6.345000 23.265000 8.460000 -0.026509 -0.000010 -0.000009 0.000009
275 1 6.345000 21.150000 10.575000 -0.026508 -0.000010 -0.000008 0.000009
276 1 4.230000 23.265000 10.575000 -0.026509 0.000009 -0.000009 0.000009
277 1 4.230000 21.150000 12.690000 -0.026509 0.000009 -0.000009 -0.000009
278 1 6.345000 23.265000 12.690000 -0.026509 -0.000010 -0.000009 -0.000009
279 1 6.345000 21.150000 14.805000 -0.026508 -0.000010 -0.000008 -0.000009
280 1 4.230000 23.265000 14.805000 -0.026509 0.000009 -0.000009 -0.000009
281 1 4.230000 21.150000 16.920000 -0.026509 0.000009 -0.000009 -0.000009
282 1 6.345000 23.265000 16.920000 -0.026509 -0.000010 -0.000009 -0.000009
283 1 6.345000 21.150000 19.035000 -0.026509 -0.000010 -0.000009 0.000010
284 1 4.230000 23.265000 19.035000 -0.026510 0.000009 -0.000009 0.000009
285 1 4.230000 21.150000 21.150000 -0.026509 0.000009 -0.000009 -0.000009
286 1 6.345000 23.265000 21.150000 -0.026510 -0.000009 -0.000009 -0.000009
287 1 6.345000 21.150000 23.265000 -0.026510 -0.000009 -0.000009 -0.000009
288 1 4.230000 23.265000 23.265000 -0.026510 0.000009 -0.000009 -0.000009
289 1 8.460000 0.000000 0.000000 -0.026510 0.000009 0.000009 0.000009
290 1 10.575000 2.115000 0.000000 -0.026510 0.000009 0.000009 0.000009
291 1 10.575000 0.000000 2.115000 -0.026510 0.000009 0.000009 0.000009
292 1 8.460000 2.115000 2.115000 -0.026510 0.000009 0.000009 0.000009
293 1 8.460000 0.000000 4.230000 -0.026510 0.000009 0.000009 0.000009
294 1 10.575000 2.115000 4.230000 -0.026509 0.000009 0.000009 0.000009
295 1 10.575000 0.000000 6.345000 -0.026509 0.000009 0.000009 -0.000009
296 1 8.460000 2.115000 6.345000 -0.026509 0.000009 0.000009 -0.000010
297 1 8.460000 0.000000 8.460000 -0.026509 0.000009 0.000009 0.000009
298 1 10.575000 2.115000 8.460000 -0.026509 0.000009 0.000008 0.000009
299 1 10.575000 0.000000 10.575000 -0.026509 0.000009 0.000009 0.000009
300 1 8.460000 2.115000 10.575000 -0.026509 0.000009 0.000008 0.000009
301 1 8.460000 0.000000 12.690000 -0.026509 0.000009 0.000009 -0.000009
302 1 10.575000 2.115000 12.690000 -0.026508 0.000009 0.000007 -0.000009
303 1 10.575000 0.000000 14.805000 -0.026509 0.000009 0.000009 -0.000009
304 1 8.460000 2.115000 14.805000 -0.026509 0.000009 0.000008 -0.000009
305 1 8.460000 0.000000 16.920000 -0.026509 0.000009 0.000009 -0.000009
306 1 10.575000 2.115000 16.920000 -0.026509 0.000009 0.000008 -0.000009
307 1 10.575000 0.000000 19.035000 -0.026509 0.000009 0.000009 0.000009
308 1 8.460000 2.115000 19.035000 -0.026509 0.000009 0.000009 0.000010
309 1 8.460000 0.000000 21.150000 -0.026510 0.000009 0.000009 -0.000009
310 1 10.575000 2.115000 21.150000 -0.026509 0.000009 0.000009 -0.000009
311 1 10.575000 0.000000 23.265000 -0.026510 0.000009 0.000009 -0.000009
312 1 8.460000 2.115000 23.265000 -0.026510 0.000009 0.000009 -0.000009
313 1 8.460000 4.230000 0.000000 -0.026510 0.000009 0.000009 0.000009
314 1 10.575000 6.345000 0.000000 -0.026509 0.000009 -0.000009 0.000009
315 1 10.575000 4.230000 2.115000 -0.026509 0.000009 0.000009 0.000009
316 1 8.460000 6.345000 2.115000 -0.026509 0.000009 -0.000010 0.000009
317 1 8.460000 4.230000 4.230000 -0.026509 0.000009 0.000009 0.000009
318 1 10.575000 6.345000 4.230000 -0.026508 0.000009 -0.000010 0.000008
319 1 10.575000 4.230000 6.345000 -0.026508 0.000009 0.000008 -0.000010
320 1 8.460000 6.345000 6.345000 -0.026507 0.000008 -0.000011 -0.000011
321 1 8.460000 4.230000 8.460000 -0.026508 0.000008 0.000007 0.000008
322 1 10.575000 6.345000 8.460000 -0.026499 0.000005 -0.000022 0.000001
323 1 10.575000 4.230000 10.575000 -0.026505 0.000008 0.000003 0.000008
324 1 8.460000 6.345000 10.575000 -0.026499 0.000001 -0.000022 0.000005
325 1 8.460000 4.230000 12.690000 -0.026506 0.000007 0.000005 -0.000009
326 1 10.575000 6.345000 12.690000 -0.026481 -0.000007 -0.000059 -0.000009
327 1 10.575000 4.230000 14.805000 -0.026505 0.000008 0.000003 -0.000008
328 1 8.460000 6.345000 14.805000 -0.026499 0.000001 -0.000022 -0.000005
329 1 8.460000 4.230000 16.920000 -0.026508 0.000008 0.000007 -0.000008
330 1 10.575000 6.345000 16.920000 -0.026499 0.000005 -0.000022 -0.000001
331 1 10.575000 4.230000 19.035000 -0.026508 0.000009 0.000008 0.000010
332 1 8.460000 6.345000 19.035000 -0.026507 0.000008 -0.000011 0.000011
333 1 8.460000 4.230000 21.150000 -0.026509 0.000009 0.000009 -0.000009
334 1 10.575000 6.345000 21.150000 -0.026508 0.000009 -0.000010 -0.000008
335 1 10.575000 4.230000 23.265000 -0.026509 0.000009 0.000009 -0.000009
336 1 8.460000 6.345000 23.265000 -0.026509 0.000009 -0.000010 -0.000009
337 1 8.460000 8.460000 0.000000 -0.026509 0.000009 0.000009 0.000009
338 1 10.575000 10.575000 0.000000 -0.026509 0.000009 0.000009 0.000009
339 1 10.575000 8.460000 2.115000 -0.026509 0.000009 0.000009 0.000008
340 1 8.460000 10.575000 2.115000 -0.026509 0.000009 0.000009 0.000008
341 1 8.460000 8.460000 4.230000 -0.026508 0.000008 0.000008 0.000007
342 1 10.575000 10.575000 4.230000 -0.026505 0.000008 0.000008 0.000003
343 1 10.575000 8.460000 6.345000 -0.026499 0.000005 0.000001 -0.000022
344 1 8.460000 10.575000 6.345000 -0.026499 0.000001 0.000005 -0.000022
345 1 8.460000 8.460000 8.460000 -0.026493 -0.000007 -0.000007 -0.000007
346 1 10.575000 10.575000 8.460000 -0.026377 -0.000113 -0.000113 -0.000236
347 1 10.575000 8.460000 10.575000 -0.026377 -0.000113 -0.000236 -0.000113
348 1 8.460000 10.575000 10.575000 -0.026377 -0.000236 -0.000113 -0.000113
349 1 8.460000 8.460000 12.690000 -0.026453 -0.000070 -0.000070 -0.000009
350 1 10.575000 10.575000 12.690000 -0.025011 0.001900 0.001900 -0.000009
351 1 10.575000 8.460000 14.805000 -0.026377 -0.000113 -0.000236 0.000113
352 1 8.460000 10.575000 14.805000 -0.026377 -0.000236 -0.000113 0.000113
353 1 8.460000 8.460000 16.920000 -0.026493 -0.000007 -0.000007 0.000007
354 1 10.575000 10.575000 16.920000 -0.026377 -0.000113 -0.000113 0.000236
355 1 10.575000 8.460000 19.035000 -0.026499 0.000005 0.000001 0.000022
356 1 8.460000 10.575000 19.035000 -0.026499 0.000001 0.000005 0.000022
357 1 8.460000 8.460000 21.150000 -0.026508 0.000008 0.000008 -0.000007
358 1 10.575000 10.575000 21.150000 -0.026505 0.000008 0.000008 -0.000003
359 1 10.575000 8.460000 23.265000 -0.026509 0.000009 0.000009 -0.000008
360 1 8.460000 10.575000 23.265000 -0.026509 0.000009 0.000009 -0.000008
361 1 8.460000 12.690000 0.000000 -0.026509 0.000009 -0.000009 0.000009
362 1 10.575000 14.805000 0.000000 -0.026509 0.000009 -0.000009 0.000009
363 1 10.575000 12.690000 2.115000 -0.026508 0.000009 -0.000009 0.000007
364 1 8.460000 14.805000 2.115000 -0.026509 0.000009 -0.000009 0.000008
365 1 8.460000 12.690000 4.230000 -0.026506 0.000007 -0.000009 0.000005
366 1 10.575000 14.805000 4.230000 -0.026505 0.000008 -0.000008 0.000003
367 1 10.575000 12.690000 6.345000 -0.026481 -0.000007 -0.000009 -0.000059
368 1 8.460000 14.805000 6.345000 -0.026499 0.000001 -0.000005 -0.000022
369 1 8.460000 12.690000 8.460000 -0.026453 -0.000070 -0.000009 -0.000070
370 1 10.575000 14.805000 8.460000 -0.026377 -0.000113 0.000113 -0.000236
371 1 10.575000 12.690000 10.575000 -0.025011 0.001900 -0.000009 0.001900
372 1 8.460000 14.805000 10.575000 -0.026377 -0.000236 0.000113 -0.000113
373 1 8.460000 12.690000 12.690000 -0.026086 -0.001098 -0.000009 -0.000009
374 1 10.575000 14.805000 12.690000 -0.025011 0.001900 -0.001900 -0.000009
375 1 10.575000 12.690000 14.805000 -0.025011 0.001900 -0.000009 -0.001900
376 1 8.460000 14.805000 14.805000 -0.026377 -0.000236 0.000113 0.000113
377 1 8.460000 12.690000 16.920000 -0.026453 -0.000070 -0.000009 0.000070
378 1 10.575000 14.805000 16.920000 -0.026377 -0.000113 0.000113 0.000236
379 1 10.575000 12.690000 19.035000 -0.026481 -0.000007 -0.000009 0.000059
380 1 8.460000 14.805000 19.035000 -0.026499 0.000001 -0.000005 0.000022
381 1 8.460000 12.690000 21.150000 -0.026506 0.000007 -0.000009 -0.000005
382 1 10.575000 14.805000 21.150000 -0.026505 0.000008 -0.000008 -0.000003
383 1 10.575000 12.690000 23.265000 -0.026508 0.000009 -0.000009 -0.000007
384 1 8.460000 14.805000 23.265000 -0.026509 0.000009 -0.000009 -0.000008
385 1 8.460000 16.920000 0.000000 -0.026509 0.000009 -0.000009 0.000009
386 1 10.575000 19.035000 0.000000 -0.026509 0.000009 0.000009 0.000009
387 1 10.575000 16.920000 2.115000 -0.026509 0.000009 -0.000009 0.000008
388 1 8.460000 19.035000 2.115000 -0.026509 0.000009 0.000010 0.000009
389 1 8.460000 16.920000 4.230000 -0.026508 0.000008 -0.000008 0.000007
390 1 10.575000 19.035000 4.230000 -0.026508 0.000009 0.000010 0.000008
391 1 10.575000 16.920000 6.345000 -0.026499 0.000005 -0.000001 -0.000022
392 1 8.460000 19.035000 6.345000 -0.026507 0.000008 0.000011 -0.000011
393 1 8.460000 16.920000 8.460000 -0.026493 -0.000007 0.000007 -0.000007
394 1 10.575000 19.035000 8.460000 -0.026499 0.000005 0.000022 0.000001
395 1 10.575000 16.920000 10.575000 -0.026377 -0.000113 0.000236 -0.000113
396 1 8.460000 19.035000 10.575000 -0.026499 0.000001 0.000022 0.000005
397 1 8.460000 16.920000 12.690000 -0.026453 -0.000070 0.000070 -0.000009
398 1 10.575000 19.035000 12.690000 -0.026481 -0.000007 0.000059 -0.000009
399 1 10.575000 16.920000 14.805000 -0.026377 -0.000113 0.000236 0.000113
400 1 8.460000 19.035000 14.805000 -0.026499 0.000001 0.000022 -0.000005
401 1 8.460000 16.920000 16.920000 -0.026493 -0.000007 0.000007 0.000007
402 1 10.575000 19.035000 16.920000 -0.026499 0.000005 0.000022 -0.000001
403 1 10.575000 16.920000 19.035000 -0.026499 0.000005 -0.000001 0.000022
404 1 8.460000 19.035000 19.035000 -0.026507 0.000008 0.000011 0.000011
405 1 8.460000 16.920000 21.150000 -0.026508 0.000008 -0.000008 -0.000007
406 1 10.575000 19.035000 21.150000 -0.026508 0.000009 0.000010 -0.000008
407 1 10.575000 16.920000 23.265000 -0.026509 0.000009 -0.000009 -0.000008
408 1 8.460000 19.035000 23.265000 -0.026509 0.000009 0.000010 -0.000009
409 1 8.460000 21.150000 0.000000 -0.026510 0.000009 -0.000009 0.000009
410 1 10.575000 23.265000 0.000000 -0.026510 0.000009 -0.000009 0.000009
411 1 10.575000 21.150000 2.115000 -0.026509 0.000009 -0.000009 0.000009
412 1 8.460000 23.265000 2.115000 -0.026510 0.000009 -0.000009 0.000009
413 1 8.460000 21.150000 4.230000 -0.026509 0.000009 -0.000009 0.000009