ITEM: TIMESTEP
1
ITEM: NUMBER OF ATOMS
431
ITEM: BOX BOUNDS pp pp pp
0.000000 6.000000
0.000000 6.000000
0.000000 6.000000
ITEM: ATOMS id type x y z
1 1 0.000000 0.000000 0.000000
2 1 0.500000 0.500000 0.500000
3 1 0.000000 0.000000 1.000000
4 1 0.500000 0.500000 1.500000
5 1 0.000000 0.000000 2.000000
6 1 0.500000 0.500000 2.500000
7 1 0.000000 0.000000 3.000000
8 1 0.500000 0.500000 3.500000
9 1 0.000000 0.000000 4.000000
10 1 0.500000 0.500000 4.500000
11 1 0.000000 0.000000 5.000000
12 1 0.500000 0.500000 5.500000
13 1 0.000000 1.000000 0.000000
14 1 0.500000 1.500000 0.500000
15 1 0.000000 1.000000 1.000000
16 1 0.500000 1.500000 1.500000
17 1 0.000000 1.000000 2.000000
18 1 0.500000 1.500000 2.500000
19 1 0.000000 1.000000 3.000000
20 1 0.500000 1.500000 3.500000
21 1 0.000000 1.000000 4.000000
22 1 0.500000 1.500000 4.500000
23 1 0.000000 1.000000 5.000000
24 1 0.500000 1.500000 5.500000
25 1 0.000000 2.000000 0.000000
26 1 0.500000 2.500000 0.500000
27 1 0.000000 2.000000 1.000000
28 1 0.500000 2.500000 1.500000
29 1 0.000000 2.000000 2.000000
30 1 0.500000 2.500000 2.500000
31 1 0.000000 2.000000 3.000000
32 1 0.500000 2.500000 3.500000
33 1 0.000000 2.000000 4.000000
34 1 0.500000 2.500000 4.500000
35 1 0.000000 2.000000 5.000000
36 1 0.500000 2.500000 5.500000
37 1 0.000000 3.000000 0.000000
38 1 0.500000 3.500000 0.500000
39 1 0.000000 3.000000 1.000000
40 1 0.500000 3.500000 1.500000
41 1 0.000000 3.000000 2.000000
42 1 0.500000 3.500000 2.500000
43 1 0.000000 3.000000 3.000000
44 1 0.500000 3.500000 3.500000
45 1 0.000000 3.000000 4.000000
46 1 0.500000 3.500000 4.500000
47 1 0.000000 3.000000 5.000000
48 1 0.500000 3.500000 5.500000
49 1 0.000000 4.000000 0.000000
50 1 0.500000 4.500000 0.500000
51 1 0.000000 4.000000 1.000000
52 1 0.500000 4.500000 1.500000
53 1 0.000000 4.000000 2.000000
54 1 0.500000 4.500000 2.500000
55 1 0.000000 4.000000 3.000000
56 1 0.500000 4.500000 3.500000
57 1 0.000000 4.000000 4.000000
58 1 0.500000 4.500000 4.500000
59 1 0.000000 4.000000 5.000000
60 1 0.500000 4.500000 5.500000
61 1 0.000000 5.000000 0.000000
62 1 0.500000 5.500000 0.500000
63 1 0.000000 5.000000 1.000000
64 1 0.500000 5.500000 1.500000
65 1 0.000000 5.000000 2.000000
66 1 0.500000 5.500000 2.500000
67 1 0.000000 5.000000 3.000000
68 1 0.500000 5.500000 3.500000
69 1 0.000000 5.000000 4.000000
70 1 0.500000 5.500000 4.500000
71 1 0.000000 5.000000 5.000000
72 1 0.500000 5.500000 5.500000
73 1 1.000000 0.000000 0.000000
74 1 1.500000 0.500000 0.500000
75 1 1.000000 0.000000 1.000000
76 1 1.500000 0.500000 1.500000
77 1 1.000000 0.000000 2.000000
78 1 1.500000 0.500000 2.500000
79 1 1.000000 0.000000 3.000000
80 1 1.500000 0.500000 3.500000
81 1 1.000000 0.000000 4.000000
82 1 1.500000 0.500000 4.500000
83 1 1.000000 0.000000 5.000000
84 1 1.500000 0.500000 5.500000
85 1 1.000000 1.000000 0.000000
86 1 1.500000 1.500000 0.500000
87 1 1.000000 1.000000 1.000000
88 1 1.500000 1.500000 1.500000
89 1 1.000000 1.000000 2.000000
90 1 1.500000 1.500000 2.500000
91 1 1.000000 1.000000 3.000000
92 1 1.500000 1.500000 3.500000
93 1 1.000000 1.000000 4.000000
94 1 1.500000 1.500000 4.500000
95 1 1.000000 1.000000 5.000000
96 1 1.500000 1.500000 5.500000
97 1 1.000000 2.000000 0.000000
98 1 1.500000 2.500000 0.500000
99 1 1.000000 2.000000 1.000000
100 1 1.500000 2.500000 1.500000
101 1 1.000000 2.000000 2.000000
102 1 1.500000 2.500000 2.500000
103 1 1.000000 2.000000 3.000000
104 1 1.500000 2.500000 3.500000
105 1 1.000000 2.000000 4.000000
106 1 1.500000 2.500000 4.500000
107 1 1.000000 2.000000 5.000000
108 1 1.500000 2.500000 5.500000
109 1 1.000000 3.000000 0.000000
110 1 1.500000 3.500000 0.500000
111 1 1.000000 3.000000 1.000000
112 1 1.500000 3.500000 1.500000
113 1 1.000000 3.000000 2.000000
114 1 1.500000 3.500000 2.500000
115 1 1.000000 3.000000 3.000000
116 1 1.500000 3.500000 3.500000
117 1 1.000000 3.000000 4.000000
118 1 1.500000 3.500000 4.500000
119 1 1.000000 3.000000 5.000000
120 1 1.500000 3.500000 5.500000
121 1 1.000000 4.000000 0.000000
122 1 1.500000 4.500000 0.500000
123 1 1.000000 4.000000 1.000000
124 1 1.500000 4.500000 1.500000
125 1 1.000000 4.000000 2.000000
126 1 1.500000 4.500000 2.500000
127 1 1.000000 4.000000 3.000000
128 1 1.500000 4.500000 3.500000
129 1 1.000000 4.000000 4.000000
130 1 1.500000 4.500000 4.500000
131 1 1.000000 4.000000 5.000000
132 1 1.500000 4.500000 5.500000
133 1 1.000000 5.000000 0.000000
134 1 1.500000 5.500000 0.500000
135 1 1.000000 5.000000 1.000000
136 1 1.500000 5.500000 1.500000
137 1 1.000000 5.000000 2.000000
138 1 1.500000 5.500000 2.500000
139 1 1.000000 5.000000 3.000000
140 1 1.500000 5.500000 3.500000
141 1 1.000000 5.000000 4.000000
142 1 1.500000 5.500000 4.500000
143 1 1.000000 5.000000 5.000000
144 1 1.500000 5.500000 5.500000
145 1 2.000000 0.000000 0.000000
146 1 2.500000 0.500000 0.500000
147 1 2.000000 0.000000 1.000000
148 1 2.500000 0.500000 1.500000
149 1 2.000000 0.000000 2.000000
150 1 2.500000 0.500000 2.500000
151 1 2.000000 0.000000 3.000000
152 1 2.500000 0.500000 3.500000
153 1 2.000000 0.000000 4.000000
154 1 2.500000 0.500000 4.500000
155 1 2.000000 0.000000 5.000000
156 1 2.500000 0.500000 5.500000
157 1 2.000000 1.000000 0.000000
158 1 2.500000 1.500000 0.500000
159 1 2.000000 1.000000 1.000000
160 1 2.500000 1.500000 1.500000
161 1 2.000000 1.000000 2.000000
162 1 2.500000 1.500000 2.500000
163 1 2.000000 1.000000 3.000000
164 1 2.500000 1.500000 3.500000
165 1 2.000000 1.000000 4.000000
166 1 2.500000 1.500000 4.500000
167 1 2.000000 1.000000 5.000000
168 1 2.500000 1.500000 5.500000
169 1 2.000000 2.000000 0.000000
170 1 2.500000 2.500000 0.500000
171 1 2.000000 2.000000 1.000000
172 1 2.500000 2.500000 1.500000
173 1 2.000000 2.000000 2.000000
174 1 2.500000 2.500000 2.500000
175 1 2.000000 2.000000 3.000000
176 1 2.500000 2.500000 3.500000
177 1 2.000000 2.000000 4.000000
178 1 2.500000 2.500000 4.500000
179 1 2.000000 2.000000 5.000000
180 1 2.500000 2.500000 5.500000
181 1 2.000000 3.000000 0.000000
182 1 2.500000 3.500000 0.500000
183 1 2.000000 3.000000 1.000000
184 1 2.500000 3.500000 1.500000
185 1 2.000000 3.000000 2.000000
186 1 2.500000 3.500000 2.500000
187 1 2.000000 3.000000 3.000000
188 1 2.500000 3.500000 3.500000
189 1 2.000000 3.000000 4.000000
190 1 2.500000 3.500000 4.500000
191 1 2.000000 3.000000 5.000000
192 1 2.500000 3.500000 5.500000
193 1 2.000000 4.000000 0.000000
194 1 2.500000 4.500000 0.500000
195 1 2.000000 4.000000 1.000000
196 1 2.500000 4.500000 1.500000
197 1 2.000000 4.000000 2.000000
198 1 2.500000 4.500000 2.500000
199 1 2.000000 4.000000 3.000000
200 1 2.500000 4.500000 3.500000
201 1 2.000000 4.000000 4.000000
202 1 2.500000 4.500000 4.500000
203 1 2.000000 4.000000 5.000000
204 1 2.500000 4.500000 5.500000
205 1 2.000000 5.000000 0.000000
206 1 2.500000 5.500000 0.500000
207 1 2.000000 5.000000 1.000000
208 1 2.500000 5.500000 1.500000
209 1 2.000000 5.000000 2.000000
210 1 2.500000 5.500000 2.500000
211 1 2.000000 5.000000 3.000000
212 1 2.500000 5.500000 3.500000
213 1 2.000000 5.000000 4.000000
214 1 2.500000 5.500000 4.500000
215 1 2.000000 5.000000 5.000000
216 1 2.500000 5.500000 5.500000
217 1 3.000000 0.000000 0.000000
218 1 3.500000 0.500000 0.500000
219 1 3.000000 0.000000 1.000000
220 1 3.500000 0.500000 1.500000
221 1 3.000000 0.000000 2.000000
222 1 3.500000 0.500000 2.500000
223 1 3.000000 0.000000 3.000000
224 1 3.500000 0.500000 3.500000
225 1 3.000000 0.000000 4.000000
226 1 3.500000 0.500000 4.500000
227 1 3.000000 0.000000 5.000000
228 1 3.500000 0.500000 5.500000
229 1 3.000000 1.000000 0.000000
230 1 3.500000 1.500000 0.500000
231 1 3.000000 1.000000 1.000000
232 1 3.500000 1.500000 1.500000
233 1 3.000000 1.000000 2.000000
234 1 3.500000 1.500000 2.500000
235 1 3.000000 1.000000 3.000000
236 1 3.500000 1.500000 3.500000
237 1 3.000000 1.000000 4.000000
238 1 3.500000 1.500000 4.500000
239 1 3.000000 1.000000 5.000000
240 1 3.500000 1.500000 5.500000
241 1 3.000000 2.000000 0.000000
242 1 3.500000 2.500000 0.500000
243 1 3.000000 2.000000 1.000000
244 1 3.500000 2.500000 1.500000
245 1 3.000000 2.000000 2.000000
246 1 3.500000 2.500000 2.500000
247 1 3.000000 2.000000 3.000000
248 1 3.500000 2.500000 3.500000
249 1 3.000000 2.000000 4.000000
250 1 3.500000 2.500000 4.500000
251 1 3.000000 2.000000 5.000000
252 1 3.500000 2.500000 5.500000
253 1 3.000000 3.000000 0.000000
254 1 3.500000 3.500000 0.500000
255 1 3.000000 3.000000 1.000000
256 1 3.500000 3.500000 1.500000
257 1 3.000000 3.000000 2.000000
258 1 3.500000 3.500000 2.500000
260 1 3.500000 3.500000 3.500000
261 1 3.000000 3.000000 4.000000
262 1 3.500000 3.500000 4.500000
263 1 3.000000 3.000000 5.000000
264 1 3.500000 3.500000 5.500000
265 1 3.000000 4.000000 0.000000
266 1 3.500000 4.500000 0.500000
267 1 3.000000 4.000000 1.000000
268 1 3.500000 4.500000 1.500000
269 1 3.000000 4.000000 2.000000
270 1 3.500000 4.500000 2.500000
271 1 3.000000 4.000000 3.000000
272 1 3.500000 4.500000 3.500000
273 1 3.000000 4.000000 4.000000
274 1 3.500000 4.500000 4.500000
275 1 3.000000 4.000000 5.000000
276 1 3.500000 4.500000 5.500000
277 1 3.000000 5.000000 0.000000
278 1 3.500000 5.500000 0.500000
279 1 3.000000 5.000000 1.000000
280 1 3.500000 5.500000 1.500000
281 1 3.000000 5.000000 2.000000
282 1 3.500000 5.500000 2.500000
283 1 3.000000 5.000000 3.000000
284 1 3.500000 5.500000 3.500000
285 1 3.000000 5.000000 4.000000
286 1 3.500000 5.500000 4.500000
287 1 3.000000 5.000000 5.000000
288 1 3.500000 5.500000 5.500000
289 1 4.000000 0.000000 0.000000
290 1 4.500000 0.500000 0.500000
291 1 4.000000 0.000000 1.000000
292 1 4.500000 0.500000 1.500000
293 1 4.000000 0.000000 2.000000
294 1 4.500000 0.500000 2.500000
295 1 4.000000 0.000000 3.000000
296 1 4.500000 0.500000 3.500000
297 1 4.000000 0.000000 4.000000
298 1 4.500000 0.500000 4.500000
299 1 4.000000 0.000000 5.000000
300 1 4.500000 0.500000 5.500000
301 1 4.000000 1.000000 0.000000
302 1 4.500000 1.500000 0.500000
303 1 4.000000 1.000000 1.000000
304 1 4.500000 1.500000 1.500000
305 1 4.000000 1.000000 2.000000
306 1 4.500000 1.500000 2.500000
307 1 4.000000 1.000000 3.000000
308 1 4.500000 1.500000 3.500000
309 1 4.000000 1.000000 4.000000
310 1 4.500000 1.500000 4.500000
311 1 4.000000 1.000000 5.000000
312 1 4.500000 1.500000 5.500000
313 1 4.000000 2.000000 0.000000
314 1 4.500000 2.500000 0.500000
315 1 4.000000 2.000000 1.000000
316 1 4.500000 2.500000 1.500000
317 1 4.000000 2.000000 2.000000
318 1 4.500000 2.500000 2.500000
319 1 4.000000 2.000000 3.000000
320 1 4.500000 2.500000 3.500000
321 1 4.000000 2.000000 4.000000
322 1 4.500000 2.500000 4.500000
323 1 4.000000 2.000000 5.000000
324 1 4.500000 2.500000 5.500000
325 1 4.000000 3.000000 0.000000
326 1 4.500000 3.500000 0.500000
327 1 4.000000 3.000000 1.000000
328 1 4.500000 3.500000 1.500000
329 1 4.000000 3.000000 2.000000
330 1 4.500000 3.500000 2.500000
331 1 4.000000 3.000000 3.000000
332 1 4.500000 3.500000 3.500000
333 1 4.000000 3.000000 4.000000
334 1 4.500000 3.500000 4.500000
335 1 4.000000 3.000000 5.000000
336 1 4.500000 3.500000 5.500000
337 1 4.000000 4.000000 0.000000
338 1 4.500000 4.500000 0.500000
339 1 4.000000 4.000000 1.000000
340 1 4.500000 4.500000 1.500000
341 1 4.000000 4.000000 2.000000
342 1 4.500000 4.500000 2.500000
343 1 4.000000 4.000000 3.000000
344 1 4.500000 4.500000 3.500000
345 1 4.000000 4.000000 4.000000
346 1 4.500000 4.500000 4.500000
347 1 4.000000 4.000000 5.000000
348 1 4.500000 4.500000 5.500000
349 1 4.000000 5.000000 0.000000
350 1 4.500000 5.500000 0.500000
351 1 4.000000 5.000000 1.000000
352 1 4.500000 5.500000 1.500000
353 1 4.000000 5.000000 2.000000
354 1 4.500000 5.500000 2.500000
355 1 4.000000 5.000000 3.000000
356 1 4.500000 5.500000 3.500000
357 1 4.000000 5.000000 4.000000
358 1 4.500000 5.500000 4.500000
359 1 4.000000 5.000000 5.000000
360 1 4.500000 5.500000 5.500000
361 1 5.000000 0.000000 0.000000
362 1 5.500000 0.500000 0.500000
363 1 5.000000 0.000000 1.000000
364 1 5.500000 0.500000 1.500000
365 1 5.000000 0.000000 2.000000
366 1 5.500000 0.500000 2.500000
367 1 5.000000 0.000000 3.000000
368 1 5.500000 0.500000 3.500000
369 1 5.000000 0.000000 4.000000
370 1 5.500000 0.500000 4.500000
371 1 5.000000 0.000000 5.000000
372 1 5.500000 0.500000 5.500000
373 1 5.000000 1.000000 0.000000
374 1 5.500000 1.500000 0.500000
375 1 5.000000 1.000000 1.000000
376 1 5.500000 1.500000 1.500000
377 1 5.000000 1.000000 2.000000
378 1 5.500000 1.500000 2.500000
379 1 5.000000 1.000000 3.000000
380 1 5.500000 1.500000 3.500000
381 1 5.000000 1.000000 4.000000
382 1 5.500000 1.500000 4.500000
383 1 5.000000 1.000000 5.000000
384 1 5.500000 1.500000 5.500000
385 1 5.000000 2.000000 0.000000
386 1 5.500000 2.500000 0.500000
387 1 5.000000 2.000000 1.000000
388 1 5.500000 2.500000 1.500000
389 1 5.000000 2.000000 2.000000
390 1 5.500000 2.500000 2.500000
391 1 5.000000 2.000000 3.000000
392 1 5.500000 2.500000 3.500000
393 1 5.000000 2.000000 4.000000
394 1 5.500000 2.500000 4.500000
395 1 5.000000 2.000000 5.000000
396 1 5.500000 2.500000 5.500000
397 1 5.000000 3.000000 0.000000
398 1 5.500000 3.500000 0.500000
399 1 5.000000 3.000000 1.000000
400 1 5.500000 3.500000 1.500000
401 1 5.000000 3.000000 2.000000
402 1 5.500000 3.500000 2.500000
403 1 5.000000 3.000000 3.000000
404 1 5.500000 3.500000 3.500000
405 1 5.000000 3.000000 4.000000
406 1 5.500000 3.500000 4.500000
407 1 5.000000 3.000000 5.000000
408 1 5.500000 3.500000 5.500000
409 1 5.000000 4.000000 0.000000
410 1 5.500000 4.500000 0.500000
411 1 5.000000 4.000000 1.000000
412 1 5.500000 4.500000 1.500000
413 1 5.000000 4.000000 2.000000
414 1 5.500000 4.500000 2.500000
415 1 5.000000 4.000000 3.000000
416 1 5.500000 4.500000 3.500000
417 1 5.000000 4.000000 4.000000
418 1 5.500000 4.500000 4.500000
419 1 5.000000 4.000000 5.000000
420 1 5.500000 4.500000 5.500000
421 1 5.000000 5.000000 0.000000
422 1 5.500000 5.500000 0.500000
423 1 5.000000 5.000000 1.000000
424 1 5.500000 5.500000 1.500000
425 1 5.000000 5.000000 2.000000
426 1 5.500000 5.500000 2.500000
427 1 5.000000 5.000000 3.000000
428 1 5.500000 5.500000 3.500000
429 1 5.000000 5.000000 4.000000
430 1 5.500000 5.500000 4.500000
431 1 5.000000 5.000000 5.000000
432 1 5.500000 5.500000 5.500000
